4347
Atoms. Timestep: 0
3 -2.35806 -4.19611 -5.31842
1 -3.21714 -4.07981 -6.83912
1 -4.61154 -4.02242 -6.85057
2 -5.16235 -4.04992 -5.91689
1 -5.29597 -3.92969 -8.0635
2 -6.37931 -3.88505 -8.07339
1 -4.58659 -3.89433 -9.26498
3 -5.44803 -3.77799 -10.7845
1 -3.19194 -3.95173 -9.25352
3 -2.29887 -3.90762 -10.7585
1 -2.50786 -4.04444 -8.04054
2 -1.4247 -4.08902 -8.03173
3 -2.35806 -4.19611 2.68158
1 -3.21714 -4.07981 1.16088
1 -4.61154 -4.02242 1.14943
2 -5.16235 -4.04992 2.08311
1 -5.29597 -3.92969 -0.0635048
2 -6.37931 -3.88505 -0.0733878
1 -4.58659 -3.89433 -1.26498
3 -5.44803 -3.77799 -2.7845
1 -3.19194 -3.95173 -1.25352
3 -2.29887 -3.90762 -2.75852
1 -2.50786 -4.04444 -0.0405388
2 -1.4247 -4.08902 -0.0317268
3 -2.35806 -4.19611 10.6816
1 -3.21714 -4.07981 9.16088
1 -4.61154 -4.02242 9.14943
2 -5.16235 -4.04992 10.0831
1 -5.29597 -3.92969 7.9365
2 -6.37931 -3.88505 7.92661
1 -4.58659 -3.89433 6.73502
3 -5.44803 -3.77799 5.2155
1 -3.19194 -3.95173 6.74648
3 -2.29887 -3.90762 5.24148
1 -2.50786 -4.04444 7.95946
2 -1.4247 -4.08902 7.96827
3 -2.35806 3.80389 -5.31842
1 -3.21714 3.92019 -6.83912
1 -4.61154 3.97758 -6.85057
2 -5.16235 3.95008 -5.91689
1 -5.29597 4.07031 -8.0635
2 -6.37931 4.11495 -8.07339
1 -4.58659 4.10567 -9.26498
3 -5.44803 4.22201 -10.7845
1 -3.19194 4.04827 -9.25352
3 -2.29887 4.09238 -10.7585
1 -2.50786 3.95556 -8.04054
2 -1.4247 3.91098 -8.03173
3 -2.35806 3.80389 2.68158
1 -3.21714 3.92019 1.16088
1 -4.61154 3.97758 1.14943
2 -5.16235 3.95008 2.08311
1 -5.29597 4.07031 -0.0635048
2 -6.37931 4.11495 -0.0733878
1 -4.58659 4.10567 -1.26498
3 -5.44803 4.22201 -2.7845
1 -3.19194 4.04827 -1.25352
3 -2.29887 4.09238 -2.75852
1 -2.50786 3.95556 -0.0405388
2 -1.4247 3.91098 -0.0317268
3 -2.35806 3.80389 10.6816
1 -3.21714 3.92019 9.16088
1 -4.61154 3.97758 9.14943
2 -5.16235 3.95008 10.0831
1 -5.29597 4.07031 7.9365
2 -6.37931 4.11495 7.92661
1 -4.58659 4.10567 6.73502
3 -5.44803 4.22201 5.2155
1 -3.19194 4.04827 6.74648
3 -2.29887 4.09238 5.24148
1 -2.50786 3.95556 7.95946
2 -1.4247 3.91098 7.96827
3 5.64194 -4.19611 -5.31842
1 4.78286 -4.07981 -6.83912
1 3.38846 -4.02242 -6.85057
2 2.83765 -4.04992 -5.91689
1 2.70403 -3.92969 -8.0635
2 1.62069 -3.88505 -8.07339
1 3.41341 -3.89433 -9.26498
3 2.55197 -3.77799 -10.7845
1 4.80806 -3.95173 -9.25352
3 5.70113 -3.90762 -10.7585
1 5.49214 -4.04444 -8.04054
2 6.5753 -4.08902 -8.03173
3 5.64194 -4.19611 2.68158
1 4.78286 -4.07981 1.16088
1 3.38846 -4.02242 1.14943
2 2.83765 -4.04992 2.08311
1 2.70403 -3.92969 -0.0635048
2 1.62069 -3.88505 -0.0733878
1 3.41341 -3.89433 -1.26498
3 2.55197 -3.77799 -2.7845
1 4.80806 -3.95173 -1.25352
3 5.70113 -3.90762 -2.75852
1 5.49214 -4.04444 -0.0405388
2 6.5753 -4.08902 -0.0317268
3 5.64194 -4.19611 10.6816
1 4.78286 -4.07981 9.16088
1 3.38846 -4.02242 9.14943
2 2.83765 -4.04992 10.0831
1 2.70403 -3.92969 7.9365
2 1.62069 -3.88505 7.92661
1 3.41341 -3.89433 6.73502
3 2.55197 -3.77799 5.2155
1 4.80806 -3.95173 6.74648
3 5.70113 -3.90762 5.24148
1 5.49214 -4.04444 7.95946
2 6.5753 -4.08902 7.96827
3 5.64194 3.80389 -5.31842
1 4.78286 3.92019 -6.83912
1 3.38846 3.97758 -6.85057
2 2.83765 3.95008 -5.91689
1 2.70403 4.07031 -8.0635
2 1.62069 4.11495 -8.07339
1 3.41341 4.10567 -9.26498
3 2.55197 4.22201 -10.7845
1 4.80806 4.04827 -9.25352
3 5.70113 4.09238 -10.7585
1 5.49214 3.95556 -8.04054
2 6.5753 3.91098 -8.03173
3 5.64194 3.80389 2.68158
1 4.78286 3.92019 1.16088
1 3.38846 3.97758 1.14943
2 2.83765 3.95008 2.08311
1 2.70403 4.07031 -0.0635048
2 1.62069 4.11495 -0.0733878
1 3.41341 4.10567 -1.26498
3 2.55197 4.22201 -2.7845
1 4.80806 4.04827 -1.25352
3 5.70113 4.09238 -2.75852
1 5.49214 3.95556 -0.0405388
2 6.5753 3.91098 -0.0317268
3 5.64194 3.80389 10.6816
1 4.78286 3.92019 9.16088
1 3.38846 3.97758 9.14943
2 2.83765 3.95008 10.0831
1 2.70403 4.07031 7.9365
2 1.62069 4.11495 7.92661
1 3.41341 4.10567 6.73502
3 2.55197 4.22201 5.2155
1 4.80806 4.04827 6.74648
3 5.70113 4.09238 5.24148
1 5.49214 3.95556 7.95946
2 6.5753 3.91098 7.96827
1 1.21911 -0.311743 0.840925
1 0.732786 -1.61584 0.823543
1 -0.638671 -1.87223 0.820477
1 -1.50464 -0.790915 0.835223
1 0.350196 0.781251 0.85582
1 -1.01002 0.533934 0.852843
1 -2.96736 -0.735078 0.836375
1 -2.17128 1.48346 0.865697
1 -3.3592 0.556959 0.853774
2 2.30024 -0.138557 0.842961
2 1.43667 -2.45449 0.812096
2 -1.0213 -2.89706 0.806817
2 0.73631 1.80477 0.869459
2 -3.59828 -1.62212 0.824658
2 -2.1685 2.15179 -0.0146268
2 -2.16803 2.12874 1.76306
2 -4.37987 0.934575 0.859134
3 10.5966 -4.19611 -5.31842
1 9.73747 -4.07981 -6.83912
1 8.34308 -4.02242 -6.85057
2 7.79227 -4.04992 -5.91689
1 7.65865 -3.92969 -8.0635
2 6.5753 -3.88505 -8.07339
1 8.36803 -3.89433 -9.26498
3 7.50658 -3.77799 -10.7845
1 9.76268 -3.95173 -9.25352
3 10.6557 -3.90762 -10.7585
1 10.4468 -4.04444 -8.04054
2 11.5299 -4.08902 -8.03173
3 10.5966 -4.19611 2.68158
1 9.73747 -4.07981 1.16088
1 8.34308 -4.02242 1.14943
2 7.79227 -4.04992 2.08311
1 7.65865 -3.92969 -0.0635048
2 6.5753 -3.88505 -0.0733878
1 8.36803 -3.89433 -1.26498
3 7.50658 -3.77799 -2.7845
1 9.76268 -3.95173 -1.25352
3 10.6557 -3.90762 -2.75852
1 10.4468 -4.04444 -0.0405388
2 11.5299 -4.08902 -0.0317268
3 10.5966 -4.19611 10.6816
1 9.73747 -4.07981 9.16088
1 8.34308 -4.02242 9.14943
2 7.79227 -4.04992 10.0831
1 7.65865 -3.92969 7.9365
2 6.5753 -3.88505 7.92661
1 8.36803 -3.89433 6.73502
3 7.50658 -3.77799 5.2155
1 9.76268 -3.95173 6.74648
3 10.6557 -3.90762 5.24148
1 10.4468 -4.04444 7.95946
2 11.5299 -4.08902 7.96827
3 10.5966 3.80389 -5.31842
1 9.73747 3.92019 -6.83912
1 8.34308 3.97758 -6.85057
2 7.79227 3.95008 -5.91689
1 7.65865 4.07031 -8.0635
2 6.5753 4.11495 -8.07339
1 8.36803 4.10567 -9.26498
3 7.50658 4.22201 -10.7845
1 9.76268 4.04827 -9.25352
3 10.6557 4.09238 -10.7585
1 10.4468 3.95556 -8.04054
2 11.5299 3.91098 -8.03173
3 10.5966 3.80389 2.68158
1 9.73747 3.92019 1.16088
1 8.34308 3.97758 1.14943
2 7.79227 3.95008 2.08311
1 7.65865 4.07031 -0.0635048
2 6.5753 4.11495 -0.0733878
1 8.36803 4.10567 -1.26498
3 7.50658 4.22201 -2.7845
1 9.76268 4.04827 -1.25352
3 10.6557 4.09238 -2.75852
1 10.4468 3.95556 -0.0405388
2 11.5299 3.91098 -0.0317268
3 10.5966 3.80389 10.6816
1 9.73747 3.92019 9.16088
1 8.34308 3.97758 9.14943
2 7.79227 3.95008 10.0831
1 7.65865 4.07031 7.9365
2 6.5753 4.11495 7.92661
1 8.36803 4.10567 6.73502
3 7.50658 4.22201 5.2155
1 9.76268 4.04827 6.74648
3 10.6557 4.09238 5.24148
1 10.4468 3.95556 7.95946
2 11.5299 3.91098 7.96827
3 18.5966 -4.19611 -5.31842
1 17.7375 -4.07981 -6.83912
1 16.3431 -4.02242 -6.85057
2 15.7923 -4.04992 -5.91689
1 15.6587 -3.92969 -8.0635
2 14.5753 -3.88505 -8.07339
1 16.368 -3.89433 -9.26498
3 15.5066 -3.77799 -10.7845
1 17.7627 -3.95173 -9.25352
3 18.6557 -3.90762 -10.7585
1 18.4468 -4.04444 -8.04054
2 19.5299 -4.08902 -8.03173
3 18.5966 -4.19611 2.68158
1 17.7375 -4.07981 1.16088
1 16.3431 -4.02242 1.14943
2 15.7923 -4.04992 2.08311
1 15.6587 -3.92969 -0.0635048
2 14.5753 -3.88505 -0.0733878
1 16.368 -3.89433 -1.26498
3 15.5066 -3.77799 -2.7845
1 17.7627 -3.95173 -1.25352
3 18.6557 -3.90762 -2.75852
1 18.4468 -4.04444 -0.0405388
2 19.5299 -4.08902 -0.0317268
3 18.5966 -4.19611 10.6816
1 17.7375 -4.07981 9.16088
1 16.3431 -4.02242 9.14943
2 15.7923 -4.04992 10.0831
1 15.6587 -3.92969 7.9365
2 14.5753 -3.88505 7.92661
1 16.368 -3.89433 6.73502
3 15.5066 -3.77799 5.2155
1 17.7627 -3.95173 6.74648
3 18.6557 -3.90762 5.24148
1 18.4468 -4.04444 7.95946
2 19.5299 -4.08902 7.96827
3 18.5966 3.80389 -5.31842
1 17.7375 3.92019 -6.83912
1 16.3431 3.97758 -6.85057
2 15.7923 3.95008 -5.91689
1 15.6587 4.07031 -8.0635
2 14.5753 4.11495 -8.07339
1 16.368 4.10567 -9.26498
3 15.5066 4.22201 -10.7845
1 17.7627 4.04827 -9.25352
3 18.6557 4.09238 -10.7585
1 18.4468 3.95556 -8.04054
2 19.5299 3.91098 -8.03173
3 18.5966 3.80389 2.68158
1 17.7375 3.92019 1.16088
1 16.3431 3.97758 1.14943
2 15.7923 3.95008 2.08311
1 15.6587 4.07031 -0.0635048
2 14.5753 4.11495 -0.0733878
1 16.368 4.10567 -1.26498
3 15.5066 4.22201 -2.7845
1 17.7627 4.04827 -1.25352
3 18.6557 4.09238 -2.75852
1 18.4468 3.95556 -0.0405388
2 19.5299 3.91098 -0.0317268
3 18.5966 3.80389 10.6816
1 17.7375 3.92019 9.16088
1 16.3431 3.97758 9.14943
2 15.7923 3.95008 10.0831
1 15.6587 4.07031 7.9365
2 14.5753 4.11495 7.92661
1 16.368 4.10567 6.73502
3 15.5066 4.22201 5.2155
1 17.7627 4.04827 6.74648
3 18.6557 4.09238 5.24148
1 18.4468 3.95556 7.95946
2 19.5299 3.91098 7.96827
1 14.1737 -0.311743 0.840925
1 13.6874 -1.61584 0.823543
1 12.3159 -1.87223 0.820477
1 11.45 -0.790915 0.835223
1 13.3048 0.781251 0.85582
1 11.9446 0.533934 0.852843
1 9.98726 -0.735078 0.836375
1 10.7833 1.48346 0.865697
1 9.59542 0.556959 0.853774
2 15.2549 -0.138557 0.842961
2 14.3913 -2.45449 0.812096
2 11.9333 -2.89706 0.806817
2 13.6909 1.80477 0.869459
2 9.35634 -1.62212 0.824658
2 10.7861 2.15179 -0.0146268
2 10.7866 2.12874 1.76306
2 8.57474 0.934575 0.859134
3 23.5512 -4.19611 -5.31842
1 22.6921 -4.07981 -6.83912
1 21.2977 -4.02242 -6.85057
2 20.7469 -4.04992 -5.91689
1 20.6133 -3.92969 -8.0635
2 19.5299 -3.88505 -8.07339
1 21.3226 -3.89433 -9.26498
3 20.4612 -3.77799 -10.7845
1 22.7173 -3.95173 -9.25352
3 23.6104 -3.90762 -10.7585
1 23.4014 -4.04444 -8.04054
2 24.4845 -4.08902 -8.03173
3 23.5512 -4.19611 2.68158
1 22.6921 -4.07981 1.16088
1 21.2977 -4.02242 1.14943
2 20.7469 -4.04992 2.08311
1 20.6133 -3.92969 -0.0635048
2 19.5299 -3.88505 -0.0733878
1 21.3226 -3.89433 -1.26498
3 20.4612 -3.77799 -2.7845
1 22.7173 -3.95173 -1.25352
3 23.6104 -3.90762 -2.75852
1 23.4014 -4.04444 -0.0405388
2 24.4845 -4.08902 -0.0317268
3 23.5512 -4.19611 10.6816
1 22.6921 -4.07981 9.16088
1 21.2977 -4.02242 9.14943
2 20.7469 -4.04992 10.0831
1 20.6133 -3.92969 7.9365
2 19.5299 -3.88505 7.92661
1 21.3226 -3.89433 6.73502
3 20.4612 -3.77799 5.2155
1 22.7173 -3.95173 6.74648
3 23.6104 -3.90762 5.24148
1 23.4014 -4.04444 7.95946
2 24.4845 -4.08902 7.96827
3 23.5512 3.80389 -5.31842
1 22.6921 3.92019 -6.83912
1 21.2977 3.97758 -6.85057
2 20.7469 3.95008 -5.91689
1 20.6133 4.07031 -8.0635
2 19.5299 4.11495 -8.07339
1 21.3226 4.10567 -9.26498
3 20.4612 4.22201 -10.7845
1 22.7173 4.04827 -9.25352
3 23.6104 4.09238 -10.7585
1 23.4014 3.95556 -8.04054
2 24.4845 3.91098 -8.03173
3 23.5512 3.80389 2.68158
1 22.6921 3.92019 1.16088
1 21.2977 3.97758 1.14943
2 20.7469 3.95008 2.08311
1 20.6133 4.07031 -0.0635048
2 19.5299 4.11495 -0.0733878
1 21.3226 4.10567 -1.26498
3 20.4612 4.22201 -2.7845
1 22.7173 4.04827 -1.25352
3 23.6104 4.09238 -2.75852
1 23.4014 3.95556 -0.0405388
2 24.4845 3.91098 -0.0317268
3 23.5512 3.80389 10.6816
1 22.6921 3.92019 9.16088
1 21.2977 3.97758 9.14943
2 20.7469 3.95008 10.0831
1 20.6133 4.07031 7.9365
2 19.5299 4.11495 7.92661
1 21.3226 4.10567 6.73502
3 20.4612 4.22201 5.2155
1 22.7173 4.04827 6.74648
3 23.6104 4.09238 5.24148
1 23.4014 3.95556 7.95946
2 24.4845 3.91098 7.96827
3 31.5512 -4.19611 -5.31842
1 30.6921 -4.07981 -6.83912
1 29.2977 -4.02242 -6.85057
2 28.7469 -4.04992 -5.91689
1 28.6133 -3.92969 -8.0635
2 27.5299 -3.88505 -8.07339
1 29.3226 -3.89433 -9.26498
3 28.4612 -3.77799 -10.7845
1 30.7173 -3.95173 -9.25352
3 31.6104 -3.90762 -10.7585
1 31.4014 -4.04444 -8.04054
2 -6.37931 -4.08902 -8.03173
3 31.5512 -4.19611 2.68158
1 30.6921 -4.07981 1.16088
1 29.2977 -4.02242 1.14943
2 28.7469 -4.04992 2.08311
1 28.6133 -3.92969 -0.0635048
2 27.5299 -3.88505 -0.0733878
1 29.3226 -3.89433 -1.26498
3 28.4612 -3.77799 -2.7845
1 30.7173 -3.95173 -1.25352
3 31.6104 -3.90762 -2.75852
1 31.4014 -4.04444 -0.0405388
2 -6.37931 -4.08902 -0.0317268
3 31.5512 -4.19611 10.6816
1 30.6921 -4.07981 9.16088
1 29.2977 -4.02242 9.14943
2 28.7469 -4.04992 10.0831
1 28.6133 -3.92969 7.9365
2 27.5299 -3.88505 7.92661
1 29.3226 -3.89433 6.73502
3 28.4612 -3.77799 5.2155
1 30.7173 -3.95173 6.74648
3 31.6104 -3.90762 5.24148
1 31.4014 -4.04444 7.95946
2 -6.37931 -4.08902 7.96827
3 31.5512 3.80389 -5.31842
1 30.6921 3.92019 -6.83912
1 29.2977 3.97758 -6.85057
2 28.7469 3.95008 -5.91689
1 28.6133 4.07031 -8.0635
2 27.5299 4.11495 -8.07339
1 29.3226 4.10567 -9.26498
3 28.4612 4.22201 -10.7845
1 30.7173 4.04827 -9.25352
3 31.6104 4.09238 -10.7585
1 31.4014 3.95556 -8.04054
2 -6.37931 3.91098 -8.03173
3 31.5512 3.80389 2.68158
1 30.6921 3.92019 1.16088
1 29.2977 3.97758 1.14943
2 28.7469 3.95008 2.08311
1 28.6133 4.07031 -0.0635048
2 27.5299 4.11495 -0.0733878
1 29.3226 4.10567 -1.26498
3 28.4612 4.22201 -2.7845
1 30.7173 4.04827 -1.25352
3 31.6104 4.09238 -2.75852
1 31.4014 3.95556 -0.0405388
2 -6.37931 3.91098 -0.0317268
3 31.5512 3.80389 10.6816
1 30.6921 3.92019 9.16088
1 29.2977 3.97758 9.14943
2 28.7469 3.95008 10.0831
1 28.6133 4.07031 7.9365
2 27.5299 4.11495 7.92661
1 29.3226 4.10567 6.73502
3 28.4612 4.22201 5.2155
1 30.7173 4.04827 6.74648
3 31.6104 4.09238 5.24148
1 31.4014 3.95556 7.95946
2 -6.37931 3.91098 7.96827
1 27.1283 -0.311743 0.840925
1 26.642 -1.61584 0.823543
1 25.2706 -1.87223 0.820477
1 24.4046 -0.790915 0.835223
1 26.2594 0.781251 0.85582
1 24.8992 0.533934 0.852843
1 22.9419 -0.735078 0.836375
1 23.7379 1.48346 0.865697
1 22.55 0.556959 0.853774
2 28.2095 -0.138557 0.842961
2 27.3459 -2.45449 0.812096
2 24.8879 -2.89706 0.806817
2 26.6455 1.80477 0.869459
2 22.311 -1.62212 0.824658
2 23.7407 2.15179 -0.0146268
2 23.7412 2.12874 1.76306
2 21.5294 0.934575 0.859134
3 -2.35806 4.22201 -5.31842
1 -3.21714 4.33831 -6.83912
1 -4.61154 4.39569 -6.85057
2 -5.16235 4.36819 -5.91689
1 -5.29597 4.48843 -8.0635
2 -6.37931 4.53307 -8.07339
1 -4.58659 4.52379 -9.26498
3 -5.44803 4.64012 -10.7845
1 -3.19194 4.46639 -9.25352
3 -2.29887 4.5105 -10.7585
1 -2.50786 4.37367 -8.04054
2 -1.4247 4.32909 -8.03173
3 -2.35806 4.22201 2.68158
1 -3.21714 4.33831 1.16088
1 -4.61154 4.39569 1.14943
2 -5.16235 4.36819 2.08311
1 -5.29597 4.48843 -0.0635048
2 -6.37931 4.53307 -0.0733878
1 -4.58659 4.52379 -1.26498
3 -5.44803 4.64012 -2.7845
1 -3.19194 4.46639 -1.25352
3 -2.29887 4.5105 -2.75852
1 -2.50786 4.37367 -0.0405388
2 -1.4247 4.32909 -0.0317268
3 -2.35806 4.22201 10.6816
1 -3.21714 4.33831 9.16088
1 -4.61154 4.39569 9.14943
2 -5.16235 4.36819 10.0831
1 -5.29597 4.48843 7.9365
2 -6.37931 4.53307 7.92661
1 -4.58659 4.52379 6.73502
3 -5.44803 4.64012 5.2155
1 -3.19194 4.46639 6.74648
3 -2.29887 4.5105 5.24148
1 -2.50786 4.37367 7.95946
2 -1.4247 4.32909 7.96827
3 -2.35806 12.222 -5.31842
1 -3.21714 12.3383 -6.83912
1 -4.61154 12.3957 -6.85057
2 -5.16235 12.3682 -5.91689
1 -5.29597 12.4884 -8.0635
2 -6.37931 12.5331 -8.07339
1 -4.58659 12.5238 -9.26498
3 -5.44803 12.6401 -10.7845
1 -3.19194 12.4664 -9.25352
3 -2.29887 12.5105 -10.7585
1 -2.50786 12.3737 -8.04054
2 -1.4247 12.3291 -8.03173
3 -2.35806 12.222 2.68158
1 -3.21714 12.3383 1.16088
1 -4.61154 12.3957 1.14943
2 -5.16235 12.3682 2.08311
1 -5.29597 12.4884 -0.0635048
2 -6.37931 12.5331 -0.0733878
1 -4.58659 12.5238 -1.26498
3 -5.44803 12.6401 -2.7845
1 -3.19194 12.4664 -1.25352
3 -2.29887 12.5105 -2.75852
1 -2.50786 12.3737 -0.0405388
2 -1.4247 12.3291 -0.0317268
3 -2.35806 12.222 10.6816
1 -3.21714 12.3383 9.16088
1 -4.61154 12.3957 9.14943
2 -5.16235 12.3682 10.0831
1 -5.29597 12.4884 7.9365
2 -6.37931 12.5331 7.92661
1 -4.58659 12.5238 6.73502
3 -5.44803 12.6401 5.2155
1 -3.19194 12.4664 6.74648
3 -2.29887 12.5105 5.24148
1 -2.50786 12.3737 7.95946
2 -1.4247 12.3291 7.96827
3 5.64194 4.22201 -5.31842
1 4.78286 4.33831 -6.83912
1 3.38846 4.39569 -6.85057
2 2.83765 4.36819 -5.91689
1 2.70403 4.48843 -8.0635
2 1.62069 4.53307 -8.07339
1 3.41341 4.52379 -9.26498
3 2.55197 4.64012 -10.7845
1 4.80806 4.46639 -9.25352
3 5.70113 4.5105 -10.7585
1 5.49214 4.37367 -8.04054
2 6.5753 4.32909 -8.03173
3 5.64194 4.22201 2.68158
1 4.78286 4.33831 1.16088
1 3.38846 4.39569 1.14943
2 2.83765 4.36819 2.08311
1 2.70403 4.48843 -0.0635048
2 1.62069 4.53307 -0.0733878
1 3.41341 4.52379 -1.26498
3 2.55197 4.64012 -2.7845
1 4.80806 4.46639 -1.25352
3 5.70113 4.5105 -2.75852
1 5.49214 4.37367 -0.0405388
2 6.5753 4.32909 -0.0317268
3 5.64194 4.22201 10.6816
1 4.78286 4.33831 9.16088
1 3.38846 4.39569 9.14943
2 2.83765 4.36819 10.0831
1 2.70403 4.48843 7.9365
2 1.62069 4.53307 7.92661
1 3.41341 4.52379 6.73502
3 2.55197 4.64012 5.2155
1 4.80806 4.46639 6.74648
3 5.70113 4.5105 5.24148
1 5.49214 4.37367 7.95946
2 6.5753 4.32909 7.96827
3 5.64194 12.222 -5.31842
1 4.78286 12.3383 -6.83912
1 3.38846 12.3957 -6.85057
2 2.83765 12.3682 -5.91689
1 2.70403 12.4884 -8.0635
2 1.62069 12.5331 -8.07339
1 3.41341 12.5238 -9.26498
3 2.55197 12.6401 -10.7845
1 4.80806 12.4664 -9.25352
3 5.70113 12.5105 -10.7585
1 5.49214 12.3737 -8.04054
2 6.5753 12.3291 -8.03173
3 5.64194 12.222 2.68158
1 4.78286 12.3383 1.16088
1 3.38846 12.3957 1.14943
2 2.83765 12.3682 2.08311
1 2.70403 12.4884 -0.0635048
2 1.62069 12.5331 -0.0733878
1 3.41341 12.5238 -1.26498
3 2.55197 12.6401 -2.7845
1 4.80806 12.4664 -1.25352
3 5.70113 12.5105 -2.75852
1 5.49214 12.3737 -0.0405388
2 6.5753 12.3291 -0.0317268
3 5.64194 12.222 10.6816
1 4.78286 12.3383 9.16088
1 3.38846 12.3957 9.14943
2 2.83765 12.3682 10.0831
1 2.70403 12.4884 7.9365
2 1.62069 12.5331 7.92661
1 3.41341 12.5238 6.73502
3 2.55197 12.6401 5.2155
1 4.80806 12.4664 6.74648
3 5.70113 12.5105 5.24148
1 5.49214 12.3737 7.95946
2 6.5753 12.3291 7.96827
1 1.21911 8.10637 0.840925
1 0.732786 6.80228 0.823543
1 -0.638671 6.54588 0.820477
1 -1.50464 7.6272 0.835223
1 0.350196 9.19936 0.85582
1 -1.01002 8.95205 0.852843
1 -2.96736 7.68304 0.836375
1 -2.17128 9.90158 0.865697
1 -3.3592 8.97507 0.853774
2 2.30024 8.27956 0.842961
2 1.43667 5.96363 0.812096
2 -1.0213 5.52106 0.806817
2 0.73631 10.2229 0.869459
2 -3.59828 6.79599 0.824658
2 -2.1685 10.5699 -0.0146268
2 -2.16803 10.5469 1.76306
2 -4.37987 9.35269 0.859134
3 10.5966 4.22201 -5.31842
1 9.73747 4.33831 -6.83912
1 8.34308 4.39569 -6.85057
2 7.79227 4.36819 -5.91689
1 7.65865 4.48843 -8.0635
2 6.5753 4.53307 -8.07339
1 8.36803 4.52379 -9.26498
3 7.50658 4.64012 -10.7845
1 9.76268 4.46639 -9.25352
3 10.6557 4.5105 -10.7585
1 10.4468 4.37367 -8.04054
2 11.5299 4.32909 -8.03173
3 10.5966 4.22201 2.68158
1 9.73747 4.33831 1.16088
1 8.34308 4.39569 1.14943
2 7.79227 4.36819 2.08311
1 7.65865 4.48843 -0.0635048
2 6.5753 4.53307 -0.0733878
1 8.36803 4.52379 -1.26498
3 7.50658 4.64012 -2.7845
1 9.76268 4.46639 -1.25352
3 10.6557 4.5105 -2.75852
1 10.4468 4.37367 -0.0405388
2 11.5299 4.32909 -0.0317268
3 10.5966 4.22201 10.6816
1 9.73747 4.33831 9.16088
1 8.34308 4.39569 9.14943
2 7.79227 4.36819 10.0831
1 7.65865 4.48843 7.9365
2 6.5753 4.53307 7.92661
1 8.36803 4.52379 6.73502
3 7.50658 4.64012 5.2155
1 9.76268 4.46639 6.74648
3 10.6557 4.5105 5.24148
1 10.4468 4.37367 7.95946
2 11.5299 4.32909 7.96827
3 10.5966 12.222 -5.31842
1 9.73747 12.3383 -6.83912
1 8.34308 12.3957 -6.85057
2 7.79227 12.3682 -5.91689
1 7.65865 12.4884 -8.0635
2 6.5753 12.5331 -8.07339
1 8.36803 12.5238 -9.26498
3 7.50658 12.6401 -10.7845
1 9.76268 12.4664 -9.25352
3 10.6557 12.5105 -10.7585
1 10.4468 12.3737 -8.04054
2 11.5299 12.3291 -8.03173
3 10.5966 12.222 2.68158
1 9.73747 12.3383 1.16088
1 8.34308 12.3957 1.14943
2 7.79227 12.3682 2.08311
1 7.65865 12.4884 -0.0635048
2 6.5753 12.5331 -0.0733878
1 8.36803 12.5238 -1.26498
3 7.50658 12.6401 -2.7845
1 9.76268 12.4664 -1.25352
3 10.6557 12.5105 -2.75852
1 10.4468 12.3737 -0.0405388
2 11.5299 12.3291 -0.0317268
3 10.5966 12.222 10.6816
1 9.73747 12.3383 9.16088
1 8.34308 12.3957 9.14943
2 7.79227 12.3682 10.0831
1 7.65865 12.4884 7.9365
2 6.5753 12.5331 7.92661
1 8.36803 12.5238 6.73502
3 7.50658 12.6401 5.2155
1 9.76268 12.4664 6.74648
3 10.6557 12.5105 5.24148
1 10.4468 12.3737 7.95946
2 11.5299 12.3291 7.96827
3 18.5966 4.22201 -5.31842
1 17.7375 4.33831 -6.83912
1 16.3431 4.39569 -6.85057
2 15.7923 4.36819 -5.91689
1 15.6587 4.48843 -8.0635
2 14.5753 4.53307 -8.07339
1 16.368 4.52379 -9.26498
3 15.5066 4.64012 -10.7845
1 17.7627 4.46639 -9.25352
3 18.6557 4.5105 -10.7585
1 18.4468 4.37367 -8.04054
2 19.5299 4.32909 -8.03173
3 18.5966 4.22201 2.68158
1 17.7375 4.33831 1.16088
1 16.3431 4.39569 1.14943
2 15.7923 4.36819 2.08311
1 15.6587 4.48843 -0.0635048
2 14.5753 4.53307 -0.0733878
1 16.368 4.52379 -1.26498
3 15.5066 4.64012 -2.7845
1 17.7627 4.46639 -1.25352
3 18.6557 4.5105 -2.75852
1 18.4468 4.37367 -0.0405388
2 19.5299 4.32909 -0.0317268
3 18.5966 4.22201 10.6816
1 17.7375 4.33831 9.16088
1 16.3431 4.39569 9.14943
2 15.7923 4.36819 10.0831
1 15.6587 4.48843 7.9365
2 14.5753 4.53307 7.92661
1 16.368 4.52379 6.73502
3 15.5066 4.64012 5.2155
1 17.7627 4.46639 6.74648
3 18.6557 4.5105 5.24148
1 18.4468 4.37367 7.95946
2 19.5299 4.32909 7.96827
3 18.5966 12.222 -5.31842
1 17.7375 12.3383 -6.83912
1 16.3431 12.3957 -6.85057
2 15.7923 12.3682 -5.91689
1 15.6587 12.4884 -8.0635
2 14.5753 12.5331 -8.07339
1 16.368 12.5238 -9.26498
3 15.5066 12.6401 -10.7845
1 17.7627 12.4664 -9.25352
3 18.6557 12.5105 -10.7585
1 18.4468 12.3737 -8.04054
2 19.5299 12.3291 -8.03173
3 18.5966 12.222 2.68158
1 17.7375 12.3383 1.16088
1 16.3431 12.3957 1.14943
2 15.7923 12.3682 2.08311
1 15.6587 12.4884 -0.0635048
2 14.5753 12.5331 -0.0733878
1 16.368 12.5238 -1.26498
3 15.5066 12.6401 -2.7845
1 17.7627 12.4664 -1.25352
3 18.6557 12.5105 -2.75852
1 18.4468 12.3737 -0.0405388
2 19.5299 12.3291 -0.0317268
3 18.5966 12.222 10.6816
1 17.7375 12.3383 9.16088
1 16.3431 12.3957 9.14943
2 15.7923 12.3682 10.0831
1 15.6587 12.4884 7.9365
2 14.5753 12.5331 7.92661
1 16.368 12.5238 6.73502
3 15.5066 12.6401 5.2155
1 17.7627 12.4664 6.74648
3 18.6557 12.5105 5.24148
1 18.4468 12.3737 7.95946
2 19.5299 12.3291 7.96827
1 14.1737 8.10637 0.840925
1 13.6874 6.80228 0.823543
1 12.3159 6.54588 0.820477
1 11.45 7.6272 0.835223
1 13.3048 9.19936 0.85582
1 11.9446 8.95205 0.852843
1 9.98726 7.68304 0.836375
1 10.7833 9.90158 0.865697
1 9.59542 8.97507 0.853774
2 15.2549 8.27956 0.842961
2 14.3913 5.96363 0.812096
2 11.9333 5.52106 0.806817
2 13.6909 10.2229 0.869459
2 9.35634 6.79599 0.824658
2 10.7861 10.5699 -0.0146268
2 10.7866 10.5469 1.76306
2 8.57474 9.35269 0.859134
3 23.5512 4.22201 -5.31842
1 22.6921 4.33831 -6.83912
1 21.2977 4.39569 -6.85057
2 20.7469 4.36819 -5.91689
1 20.6133 4.48843 -8.0635
2 19.5299 4.53307 -8.07339
1 21.3226 4.52379 -9.26498
3 20.4612 4.64012 -10.7845
1 22.7173 4.46639 -9.25352
3 23.6104 4.5105 -10.7585
1 23.4014 4.37367 -8.04054
2 24.4845 4.32909 -8.03173
3 23.5512 4.22201 2.68158
1 22.6921 4.33831 1.16088
1 21.2977 4.39569 1.14943
2 20.7469 4.36819 2.08311
1 20.6133 4.48843 -0.0635048
2 19.5299 4.53307 -0.0733878
1 21.3226 4.52379 -1.26498
3 20.4612 4.64012 -2.7845
1 22.7173 4.46639 -1.25352
3 23.6104 4.5105 -2.75852
1 23.4014 4.37367 -0.0405388
2 24.4845 4.32909 -0.0317268
3 23.5512 4.22201 10.6816
1 22.6921 4.33831 9.16088
1 21.2977 4.39569 9.14943
2 20.7469 4.36819 10.0831
1 20.6133 4.48843 7.9365
2 19.5299 4.53307 7.92661
1 21.3226 4.52379 6.73502
3 20.4612 4.64012 5.2155
1 22.7173 4.46639 6.74648
3 23.6104 4.5105 5.24148
1 23.4014 4.37367 7.95946
2 24.4845 4.32909 7.96827
3 23.5512 12.222 -5.31842
1 22.6921 12.3383 -6.83912
1 21.2977 12.3957 -6.85057
2 20.7469 12.3682 -5.91689
1 20.6133 12.4884 -8.0635
2 19.5299 12.5331 -8.07339
1 21.3226 12.5238 -9.26498
3 20.4612 12.6401 -10.7845
1 22.7173 12.4664 -9.25352
3 23.6104 12.5105 -10.7585
1 23.4014 12.3737 -8.04054
2 24.4845 12.3291 -8.03173
3 23.5512 12.222 2.68158
1 22.6921 12.3383 1.16088
1 21.2977 12.3957 1.14943
2 20.7469 12.3682 2.08311
1 20.6133 12.4884 -0.0635048
2 19.5299 12.5331 -0.0733878
1 21.3226 12.5238 -1.26498
3 20.4612 12.6401 -2.7845
1 22.7173 12.4664 -1.25352
3 23.6104 12.5105 -2.75852
1 23.4014 12.3737 -0.0405388
2 24.4845 12.3291 -0.0317268
3 23.5512 12.222 10.6816
1 22.6921 12.3383 9.16088
1 21.2977 12.3957 9.14943
2 20.7469 12.3682 10.0831
1 20.6133 12.4884 7.9365
2 19.5299 12.5331 7.92661
1 21.3226 12.5238 6.73502
3 20.4612 12.6401 5.2155
1 22.7173 12.4664 6.74648
3 23.6104 12.5105 5.24148
1 23.4014 12.3737 7.95946
2 24.4845 12.3291 7.96827
3 31.5512 4.22201 -5.31842
1 30.6921 4.33831 -6.83912
1 29.2977 4.39569 -6.85057
2 28.7469 4.36819 -5.91689
1 28.6133 4.48843 -8.0635
2 27.5299 4.53307 -8.07339
1 29.3226 4.52379 -9.26498
3 28.4612 4.64012 -10.7845
1 30.7173 4.46639 -9.25352
3 31.6104 4.5105 -10.7585
1 31.4014 4.37367 -8.04054
2 -6.37931 4.32909 -8.03173
3 31.5512 4.22201 2.68158
1 30.6921 4.33831 1.16088
1 29.2977 4.39569 1.14943
2 28.7469 4.36819 2.08311
1 28.6133 4.48843 -0.0635048
2 27.5299 4.53307 -0.0733878
1 29.3226 4.52379 -1.26498
3 28.4612 4.64012 -2.7845
1 30.7173 4.46639 -1.25352
3 31.6104 4.5105 -2.75852
1 31.4014 4.37367 -0.0405388
2 -6.37931 4.32909 -0.0317268
3 31.5512 4.22201 10.6816
1 30.6921 4.33831 9.16088
1 29.2977 4.39569 9.14943
2 28.7469 4.36819 10.0831
1 28.6133 4.48843 7.9365
2 27.5299 4.53307 7.92661
1 29.3226 4.52379 6.73502
3 28.4612 4.64012 5.2155
1 30.7173 4.46639 6.74648
3 31.6104 4.5105 5.24148
1 31.4014 4.37367 7.95946
2 -6.37931 4.32909 7.96827
3 31.5512 12.222 -5.31842
1 30.6921 12.3383 -6.83912
1 29.2977 12.3957 -6.85057
2 28.7469 12.3682 -5.91689
1 28.6133 12.4884 -8.0635
2 27.5299 12.5331 -8.07339
1 29.3226 12.5238 -9.26498
3 28.4612 12.6401 -10.7845
1 30.7173 12.4664 -9.25352
3 31.6104 12.5105 -10.7585
1 31.4014 12.3737 -8.04054
2 -6.37931 12.3291 -8.03173
3 31.5512 12.222 2.68158
1 30.6921 12.3383 1.16088
1 29.2977 12.3957 1.14943
2 28.7469 12.3682 2.08311
1 28.6133 12.4884 -0.0635048
2 27.5299 12.5331 -0.0733878
1 29.3226 12.5238 -1.26498
3 28.4612 12.6401 -2.7845
1 30.7173 12.4664 -1.25352
3 31.6104 12.5105 -2.75852
1 31.4014 12.3737 -0.0405388
2 -6.37931 12.3291 -0.0317268
3 31.5512 12.222 10.6816
1 30.6921 12.3383 9.16088
1 29.2977 12.3957 9.14943
2 28.7469 12.3682 10.0831
1 28.6133 12.4884 7.9365
2 27.5299 12.5331 7.92661
1 29.3226 12.5238 6.73502
3 28.4612 12.6401 5.2155
1 30.7173 12.4664 6.74648
3 31.6104 12.5105 5.24148
1 31.4014 12.3737 7.95946
2 -6.37931 12.3291 7.96827
1 27.1283 8.10637 0.840925
1 26.642 6.80228 0.823543
1 25.2706 6.54588 0.820477
1 24.4046 7.6272 0.835223
1 26.2594 9.19936 0.85582
1 24.8992 8.95205 0.852843
1 22.9419 7.68304 0.836375
1 23.7379 9.90158 0.865697
1 22.55 8.97507 0.853774
2 28.2095 8.27956 0.842961
2 27.3459 5.96363 0.812096
2 24.8879 5.52106 0.806817
2 26.6455 10.2229 0.869459
2 22.311 6.79599 0.824658
2 23.7407 10.5699 -0.0146268
2 23.7412 10.5469 1.76306
2 21.5294 9.35269 0.859134
3 -2.35806 12.6401 -5.31842
1 -3.21714 12.7564 -6.83912
1 -4.61154 12.8138 -6.85057
2 -5.16235 12.7863 -5.91689
1 -5.29597 12.9065 -8.0635
2 -6.37931 12.9512 -8.07339
1 -4.58659 12.9419 -9.26498
3 -5.44803 13.0582 -10.7845
1 -3.19194 12.8845 -9.25352
3 -2.29887 12.9286 -10.7585
1 -2.50786 12.7918 -8.04054
2 -1.4247 12.7472 -8.03173
3 -2.35806 12.6401 2.68158
1 -3.21714 12.7564 1.16088
1 -4.61154 12.8138 1.14943
2 -5.16235 12.7863 2.08311
1 -5.29597 12.9065 -0.0635048
2 -6.37931 12.9512 -0.0733878
1 -4.58659 12.9419 -1.26498
3 -5.44803 13.0582 -2.7845
1 -3.19194 12.8845 -1.25352
3 -2.29887 12.9286 -2.75852
1 -2.50786 12.7918 -0.0405388
2 -1.4247 12.7472 -0.0317268
3 -2.35806 12.6401 10.6816
1 -3.21714 12.7564 9.16088
1 -4.61154 12.8138 9.14943
2 -5.16235 12.7863 10.0831
1 -5.29597 12.9065 7.9365
2 -6.37931 12.9512 7.92661
1 -4.58659 12.9419 6.73502
3 -5.44803 13.0582 5.2155
1 -3.19194 12.8845 6.74648
3 -2.29887 12.9286 5.24148
1 -2.50786 12.7918 7.95946
2 -1.4247 12.7472 7.96827
3 -2.35806 20.6401 -5.31842
1 -3.21714 20.7564 -6.83912
1 -4.61154 20.8138 -6.85057
2 -5.16235 20.7863 -5.91689
1 -5.29597 20.9065 -8.0635
2 -6.37931 20.9512 -8.07339
1 -4.58659 20.9419 -9.26498
3 -5.44803 -4.19611 -10.7845
1 -3.19194 20.8845 -9.25352
3 -2.29887 20.9286 -10.7585
1 -2.50786 20.7918 -8.04054
2 -1.4247 20.7472 -8.03173
3 -2.35806 20.6401 2.68158
1 -3.21714 20.7564 1.16088
1 -4.61154 20.8138 1.14943
2 -5.16235 20.7863 2.08311
1 -5.29597 20.9065 -0.0635048
2 -6.37931 20.9512 -0.0733878
1 -4.58659 20.9419 -1.26498
3 -5.44803 -4.19611 -2.7845
1 -3.19194 20.8845 -1.25352
3 -2.29887 20.9286 -2.75852
1 -2.50786 20.7918 -0.0405388
2 -1.4247 20.7472 -0.0317268
3 -2.35806 20.6401 10.6816
1 -3.21714 20.7564 9.16088
1 -4.61154 20.8138 9.14943
2 -5.16235 20.7863 10.0831
1 -5.29597 20.9065 7.9365
2 -6.37931 20.9512 7.92661
1 -4.58659 20.9419 6.73502
3 -5.44803 -4.19611 5.2155
1 -3.19194 20.8845 6.74648
3 -2.29887 20.9286 5.24148
1 -2.50786 20.7918 7.95946
2 -1.4247 20.7472 7.96827
3 5.64194 12.6401 -5.31842
1 4.78286 12.7564 -6.83912
1 3.38846 12.8138 -6.85057
2 2.83765 12.7863 -5.91689
1 2.70403 12.9065 -8.0635
2 1.62069 12.9512 -8.07339
1 3.41341 12.9419 -9.26498
3 2.55197 13.0582 -10.7845
1 4.80806 12.8845 -9.25352
3 5.70113 12.9286 -10.7585
1 5.49214 12.7918 -8.04054
2 6.5753 12.7472 -8.03173
3 5.64194 12.6401 2.68158
1 4.78286 12.7564 1.16088
1 3.38846 12.8138 1.14943
2 2.83765 12.7863 2.08311
1 2.70403 12.9065 -0.0635048
2 1.62069 12.9512 -0.0733878
1 3.41341 12.9419 -1.26498
3 2.55197 13.0582 -2.7845
1 4.80806 12.8845 -1.25352
3 5.70113 12.9286 -2.75852
1 5.49214 12.7918 -0.0405388
2 6.5753 12.7472 -0.0317268
3 5.64194 12.6401 10.6816
1 4.78286 12.7564 9.16088
1 3.38846 12.8138 9.14943
2 2.83765 12.7863 10.0831
1 2.70403 12.9065 7.9365