4347
Atoms. Timestep: 0
3 -4.91245 -1.78868 -4.94086
1 -5.47394 -1.17466 -6.48091
1 -6.50302 -0.232911 -6.52371
2 -6.95449 0.118152 -5.60239
1 -6.9503 0.256295 -7.75207
2 37.5998 0.987993 -7.78631
1 -6.36892 -0.195856 -8.93765
3 -6.93221 0.419723 -10.4766
1 -5.33965 -1.13777 -8.89482
3 -4.60808 -1.70718 -10.3798
1 -4.89264 -1.62675 -7.66642
2 -4.09323 -2.35831 -7.63326
3 -2.89874 -5.11104 3.6831
1 -3.19378 -4.80643 1.98481
1 -4.46996 -4.44327 1.55211
2 -5.27856 -4.34994 2.26861
1 -4.70456 -4.20052 0.197753
2 -5.69575 -3.91832 -0.139359
1 -3.66352 -4.32078 -0.724068
3 -3.96109 -4.01561 -2.42199
1 -2.38711 -4.68399 -0.291299
3 -1.07895 -4.83578 -1.44464
1 -2.15285 -4.92666 1.063
2 -1.16148 -5.20875 1.39904
3 -1.092 -2.51211 10.6533
1 -1.86214 -3.38029 9.34288
1 -1.63542 -4.74809 9.18331
2 -0.981906 -5.27261 9.8716
1 -2.24981 -5.43978 8.13816
2 -2.07424 -6.50248 8.01341
1 -3.09084 -4.76425 7.25254
3 -3.85988 -5.63471 5.94279
1 -3.31761 -3.3962 7.41214
3 -4.37186 -2.54561 6.30328
1 -2.70312 -2.70485 8.45729
2 -2.8793 -1.64234 8.58117
3 -2.49893 2.88334 -4.82113
1 -3.48513 3.24927 -6.22026
1 -4.72301 2.62595 -6.38413
2 -5.07345 1.91487 -5.64422
1 -5.50891 2.91817 -7.50003
2 -6.47081 2.43438 -7.6282
1 -5.05745 3.83346 -8.45211
3 -6.04556 4.19774 -9.85049
1 -3.81934 4.45689 -8.28819
3 -3.24985 5.60543 -9.4803
1 -3.03374 4.16448 -7.17229
2 -2.07216 4.64872 -7.04507
3 -2.27658 4.80089 3.12593
1 -3.10706 4.66321 1.5912
1 -4.45579 4.30615 1.55685
2 -4.98886 4.11408 2.48143
1 -5.11743 4.19652 0.332727
2 -6.1653 3.91915 0.305042
1 -4.4309 4.44381 -0.857025
3 -5.26366 4.30546 -2.39064
1 -3.08193 4.80095 -0.822666
3 -2.21763 5.11188 -2.31291
1 -2.42063 4.91048 0.401497
2 -1.37293 5.18785 0.428099
3 -3.01109 2.70146 10.1186
1 -3.84262 3.31807 8.70701
1 -5.23724 3.36509 8.68341
2 -5.80532 3.01942 9.53999
1 -5.89969 3.85687 7.55754
2 -6.9832 3.89378 7.53831
1 -5.1681 4.30165 6.45531
3 -6.002 4.91787 5.04482
1 -3.77322 4.25463 6.47892
3 -2.85232 4.81164 5.09827
1 -3.11112 3.76283 7.60482
2 -2.02777 3.72634 7.62308
3 4.45664 31.9959 -4.06056
1 4.53826 -6.54007 -5.54113
1 3.37884 -5.9777 -6.07705
2 2.42749 -6.11738 -5.57572
1 3.4446 -5.23606 -7.25769
2 2.54433 -4.79875 -7.67482
1 4.6693 -5.05656 -7.90261
3 4.74833 -4.12584 -9.38317
1 5.82892 -5.61903 -7.36657
3 7.36676 -5.39597 -8.17272
1 5.76284 -6.36056 -6.18603
2 6.66353 -6.79738 -5.76978
3 5.8585 -3.85769 3.10486
1 4.9849 -3.99092 1.59386
1 3.6257 -4.30762 1.59889
2 3.11122 -4.47108 2.53936
1 2.92968 -4.41371 0.39367
2 1.87366 -4.65973 0.396583
1 3.59229 -4.20324 -0.816548
3 2.71643 -4.33705 -2.32637
1 4.95173 -3.88647 -0.82158
3 5.78611 -3.6218 -2.33759
1 5.64742 -3.78047 0.383692
2 6.70325 -3.53445 0.379701
3 5.85323 -4.26198 11.0769
1 4.99414 -4.14568 9.55618
1 3.59975 -4.08828 9.54473
2 3.04894 -4.11579 10.4784
1 2.91532 -3.99556 8.3318
2 1.83198 -3.95092 8.32193
1 3.6247 -3.9602 7.13033
3 2.76326 -3.84387 5.6108
1 5.01934 -4.0176 7.14178
3 5.91241 -3.97348 5.63679
1 5.70342 -4.11032 8.35477
2 6.78659 -4.15489 8.36357
3 5.87872 4.44277 -6.26434
1 5.05378 4.21451 -7.79124
1 3.68455 3.94518 -7.81152
2 3.13212 3.87741 -6.88086
1 3.02734 3.76325 -9.0294
2 1.96356 3.55395 -9.04616
1 3.73879 3.85055 -10.227
3 2.91152 3.62188 56.7362
1 5.10827 4.11994 -10.2067
3 6.00385 4.23017 56.7821
1 5.76513 4.3018 -8.98877
2 6.82876 4.51101 -8.9731
3 5.74997 3.45573 2.99981
1 5.07143 3.70086 1.40496
1 4.1284 4.70796 1.19477
2 3.81634 5.33844 2.02
1 3.5877 4.90289 -0.0771977
2 2.85497 5.6851 -0.241464
1 3.98965 4.09116 -1.13904
3 3.30959 4.33828 -2.7331
1 4.93285 3.08387 -0.928811
3 5.43938 2.06382 -2.25826
1 5.47331 2.8892 0.343157
2 6.20585 2.10685 0.506353
3 3.79405 5.22863 8.33357
1 2.97823 4.18525 7.18905
1 1.725 3.65469 7.49835
2 1.25704 3.88921 8.44806
1 1.07501 2.82276 6.5853
2 0.101312 2.41009 6.82475
1 1.67772 2.5212 5.36309
3 0.859819 1.47749 4.22015
1 2.93117 3.05187 5.05373
3 3.69017 2.67581 3.52173
1 3.58085 3.88367 5.96691
2 4.55436 4.29578 5.72657
1 1.89554 -0.179433 0.262605
1 1.43694 -1.47994 0.0733169
1 0.148171 -1.72645 -0.400981
1 -0.663944 -0.638961 -0.67883
1 1.08068 0.919753 -0.0160624
1 -0.1975 0.682241 -0.48637
1 -2.03804 -0.572585 -1.17895
1 -1.28713 1.64009 -0.867891
1 -2.40442 0.722191 -1.29079
2 2.91145 -0.0140495 0.636003
2 2.0971 -2.32362 0.299871
2 -0.212644 -2.74846 -0.549888
2 1.44477 1.94043 0.134012
2 -2.63193 -1.45502 -1.41052
2 -0.978726 2.31053 -1.6907
2 -1.58792 2.28312 -0.0207272
2 -3.36281 1.10714 -1.63386
3 10.2041 -1.78868 -4.94086
1 9.6426 -1.17466 -6.48091
1 8.61352 -0.232911 -6.52371
2 8.16205 0.118152 -5.60239
1 8.16624 0.256295 -7.75207
2 7.36676 0.987993 -7.78631
1 8.74762 -0.195856 -8.93765
3 8.18434 0.419723 -10.4766
1 9.7769 -1.13777 -8.89482
3 10.5085 -1.70718 -10.3798
1 10.2239 -1.62675 -7.66642
2 11.0233 -2.35831 -7.63326
3 12.2178 -5.11104 3.6831
1 11.9228 -4.80643 1.98481
1 10.6466 -4.44327 1.55211
2 9.83799 -4.34994 2.26861
1 10.412 -4.20052 0.197753
2 9.4208 -3.91832 -0.139359
1 11.453 -4.32078 -0.724068
3 11.1554 -4.01561 -2.42199
1 12.7294 -4.68399 -0.291299
3 14.0376 -4.83578 -1.44464
1 12.9637 -4.92666 1.063
2 13.9551 -5.20875 1.39904
3 14.0245 -2.51211 10.6533
1 13.2544 -3.38029 9.34288
1 13.4811 -4.74809 9.18331
2 14.1346 -5.27261 9.8716
1 12.8667 -5.43978 8.13816
2 13.0423 -6.50248 8.01341
1 12.0257 -4.76425 7.25254
3 11.2567 -5.63471 5.94279
1 11.7989 -3.3962 7.41214
3 10.7447 -2.54561 6.30328
1 12.4134 -2.70485 8.45729
2 12.2372 -1.64234 8.58117
3 12.6176 2.88334 -4.82113
1 11.6314 3.24927 -6.22026
1 10.3935 2.62595 -6.38413
2 10.0431 1.91487 -5.64422
1 9.60763 2.91817 -7.50003
2 8.64573 2.43438 -7.6282
1 10.0591 3.83346 -8.45211
3 9.07098 4.19774 -9.85049
1 11.2972 4.45689 -8.28819
3 11.8667 5.60543 -9.4803
1 12.0828 4.16448 -7.17229
2 13.0444 4.64872 -7.04507
3 12.84 4.80089 3.12593
1 12.0095 4.66321 1.5912
1 10.6608 4.30615 1.55685
2 10.1277 4.11408 2.48143
1 9.99911 4.19652 0.332727
2 8.95125 3.91915 0.305042
1 10.6856 4.44381 -0.857025
3 9.85288 4.30546 -2.39064
1 12.0346 4.80095 -0.822666
3 12.8989 5.11188 -2.31291
1 12.6959 4.91048 0.401497
2 13.7436 5.18785 0.428099
3 12.1055 2.70146 10.1186
1 11.2739 3.31807 8.70701
1 9.8793 3.36509 8.68341
2 9.31122 3.01942 9.53999
1 9.21685 3.85687 7.55754
2 8.13334 3.89378 7.53831
1 9.94844 4.30165 6.45531
3 9.11454 4.91787 5.04482
1 11.3433 4.25463 6.47892
3 12.2642 4.81164 5.09827
1 12.0054 3.76283 7.60482
2 13.0888 3.72634 7.62308
3 19.5732 31.9959 -4.06056
1 19.6548 -6.54007 -5.54113
1 18.4954 -5.9777 -6.07705
2 17.544 -6.11738 -5.57572
1 18.5611 -5.23606 -7.25769
2 17.6609 -4.79875 -7.67482
1 19.7858 -5.05656 -7.90261
3 19.8649 -4.12584 -9.38317
1 20.9455 -5.61903 -7.36657
3 22.4833 -5.39597 -8.17272
1 20.8794 -6.36056 -6.18603
2 21.7801 -6.79738 -5.76978
3 20.975 -3.85769 3.10486
1 20.1014 -3.99092 1.59386
1 18.7422 -4.30762 1.59889
2 18.2278 -4.47108 2.53936
1 18.0462 -4.41371 0.39367
2 16.9902 -4.65973 0.396583
1 18.7088 -4.20324 -0.816548
3 17.833 -4.33705 -2.32637
1 20.0683 -3.88647 -0.82158
3 20.9027 -3.6218 -2.33759
1 20.764 -3.78047 0.383692
2 21.8198 -3.53445 0.379701
3 20.9698 -4.26198 11.0769
1 20.1107 -4.14568 9.55618
1 18.7163 -4.08828 9.54473
2 18.1655 -4.11579 10.4784
1 18.0319 -3.99556 8.3318
2 16.9485 -3.95092 8.32193
1 18.7412 -3.9602 7.13033
3 17.8798 -3.84387 5.6108
1 20.1359 -4.0176 7.14178
3 21.029 -3.97348 5.63679
1 20.82 -4.11032 8.35477
2 21.9031 -4.15489 8.36357
3 20.9953 4.44277 -6.26434
1 20.1703 4.21451 -7.79124
1 18.8011 3.94518 -7.81152
2 18.2487 3.87741 -6.88086
1 18.1439 3.76325 -9.0294
2 17.0801 3.55395 -9.04616
1 18.8553 3.85055 -10.227
3 18.0281 3.62188 56.7362
1 20.2248 4.11994 -10.2067
3 21.1204 4.23017 56.7821
1 20.8817 4.3018 -8.98877
2 21.9453 4.51101 -8.9731
3 20.8665 3.45573 2.99981
1 20.188 3.70086 1.40496
1 19.2449 4.70796 1.19477
2 18.9329 5.33844 2.02
1 18.7042 4.90289 -0.0771977
2 17.9715 5.6851 -0.241464
1 19.1062 4.09116 -1.13904
3 18.4261 4.33828 -2.7331
1 20.0494 3.08387 -0.928811
3 20.5559 2.06382 -2.25826
1 20.5899 2.8892 0.343157
2 21.3224 2.10685 0.506353
3 18.9106 5.22863 8.33357
1 18.0948 4.18525 7.18905
1 16.8415 3.65469 7.49835
2 16.3736 3.88921 8.44806
1 16.1916 2.82276 6.5853
2 15.2179 2.41009 6.82475
1 16.7943 2.5212 5.36309
3 15.9764 1.47749 4.22015
1 18.0477 3.05187 5.05373
3 18.8067 2.67581 3.52173
1 18.6974 3.88367 5.96691
2 19.6709 4.29578 5.72657
1 17.0121 -0.179433 0.262605
1 16.5535 -1.47994 0.0733169
1 15.2647 -1.72645 -0.400981
1 14.4526 -0.638961 -0.67883
1 16.1972 0.919753 -0.0160624
1 14.919 0.682241 -0.48637
1 13.0785 -0.572585 -1.17895
1 13.8294 1.64009 -0.867891
1 12.7121 0.722191 -1.29079
2 18.028 -0.0140495 0.636003
2 17.2136 -2.32362 0.299871
2 14.9039 -2.74846 -0.549888
2 16.5613 1.94043 0.134012
2 12.4846 -1.45502 -1.41052
2 14.1378 2.31053 -1.6907
2 13.5286 2.28312 -0.0207272
2 11.7537 1.10714 -1.63386
3 25.3206 -1.78868 -4.94086
1 24.7591 -1.17466 -6.48091
1 23.7301 -0.232911 -6.52371
2 23.2786 0.118152 -5.60239
1 23.2828 0.256295 -7.75207
2 22.4833 0.987993 -7.78631
1 23.8642 -0.195856 -8.93765
3 23.3009 0.419723 -10.4766
1 24.8934 -1.13777 -8.89482
3 25.625 -1.70718 -10.3798
1 25.3404 -1.62675 -7.66642
2 26.1398 -2.35831 -7.63326
3 27.3343 -5.11104 3.6831
1 27.0393 -4.80643 1.98481
1 25.7631 -4.44327 1.55211
2 24.9545 -4.34994 2.26861
1 25.5285 -4.20052 0.197753
2 24.5373 -3.91832 -0.139359
1 26.5696 -4.32078 -0.724068
3 26.272 -4.01561 -2.42199
1 27.846 -4.68399 -0.291299
3 29.1541 -4.83578 -1.44464
1 28.0802 -4.92666 1.063
2 29.0716 -5.20875 1.39904
3 29.1411 -2.51211 10.6533
1 28.3709 -3.38029 9.34288
1 28.5977 -4.74809 9.18331
2 29.2512 -5.27261 9.8716
1 27.9833 -5.43978 8.13816
2 28.1588 -6.50248 8.01341
1 27.1422 -4.76425 7.25254
3 26.3732 -5.63471 5.94279
1 26.9155 -3.3962 7.41214
3 25.8612 -2.54561 6.30328
1 27.53 -2.70485 8.45729
2 27.3538 -1.64234 8.58117
3 27.7341 2.88334 -4.82113
1 26.748 3.24927 -6.22026
1 25.5101 2.62595 -6.38413
2 25.1596 1.91487 -5.64422
1 24.7242 2.91817 -7.50003
2 23.7623 2.43438 -7.6282
1 25.1756 3.83346 -8.45211
3 24.1875 4.19774 -9.85049
1 26.4137 4.45689 -8.28819
3 26.9832 5.60543 -9.4803
1 27.1993 4.16448 -7.17229
2 28.1609 4.64872 -7.04507
3 27.9565 4.80089 3.12593
1 27.126 4.66321 1.5912
1 25.7773 4.30615 1.55685
2 25.2442 4.11408 2.48143
1 25.1157 4.19652 0.332727
2 24.0678 3.91915 0.305042
1 25.8022 4.44381 -0.857025
3 24.9694 4.30546 -2.39064
1 27.1511 4.80095 -0.822666
3 28.0154 5.11188 -2.31291
1 27.8125 4.91048 0.401497
2 28.8602 5.18785 0.428099
3 27.222 2.70146 10.1186
1 26.3905 3.31807 8.70701
1 24.9958 3.36509 8.68341
2 24.4278 3.01942 9.53999
1 24.3334 3.85687 7.55754
2 23.2499 3.89378 7.53831
1 25.065 4.30165 6.45531
3 24.2311 4.91787 5.04482
1 26.4599 4.25463 6.47892
3 27.3808 4.81164 5.09827
1 27.122 3.76283 7.60482
2 28.2053 3.72634 7.62308
3 34.6897 31.9959 -4.06056
1 34.7713 -6.54007 -5.54113
1 33.6119 -5.9777 -6.07705
2 32.6606 -6.11738 -5.57572
1 33.6777 -5.23606 -7.25769
2 32.7774 -4.79875 -7.67482
1 34.9024 -5.05656 -7.90261
3 34.9814 -4.12584 -9.38317
1 36.062 -5.61903 -7.36657
3 37.5998 -5.39597 -8.17272
1 35.9959 -6.36056 -6.18603
2 36.8966 -6.79738 -5.76978
3 36.0916 -3.85769 3.10486
1 35.218 -3.99092 1.59386
1 33.8588 -4.30762 1.59889
2 33.3443 -4.47108 2.53936
1 33.1628 -4.41371 0.39367
2 32.1067 -4.65973 0.396583
1 33.8254 -4.20324 -0.816548
3 32.9495 -4.33705 -2.32637
1 35.1848 -3.88647 -0.82158
3 36.0192 -3.6218 -2.33759
1 35.8805 -3.78047 0.383692
2 36.9363 -3.53445 0.379701
3 36.0863 -4.26198 11.0769
1 35.2272 -4.14568 9.55618
1 33.8328 -4.08828 9.54473
2 33.282 -4.11579 10.4784
1 33.1484 -3.99556 8.3318
2 32.0651 -3.95092 8.32193
1 33.8578 -3.9602 7.13033
3 32.9963 -3.84387 5.6108
1 35.2524 -4.0176 7.14178
3 36.1455 -3.97348 5.63679
1 35.9365 -4.11032 8.35477
2 37.0197 -4.15489 8.36357
3 36.1118 4.44277 -6.26434
1 35.2869 4.21451 -7.79124
1 33.9176 3.94518 -7.81152
2 33.3652 3.87741 -6.88086
1 33.2604 3.76325 -9.0294
2 32.1966 3.55395 -9.04616
1 33.9719 3.85055 -10.227
3 33.1446 3.62188 56.7362
1 35.3413 4.11994 -10.2067
3 36.2369 4.23017 56.7821
1 35.9982 4.3018 -8.98877
2 37.0618 4.51101 -8.9731
3 35.9831 3.45573 2.99981
1 35.3045 3.70086 1.40496
1 34.3615 4.70796 1.19477
2 34.0494 5.33844 2.02
1 33.8208 4.90289 -0.0771977
2 33.0881 5.6851 -0.241464
1 34.2227 4.09116 -1.13904
3 33.5427 4.33828 -2.7331
1 35.1659 3.08387 -0.928811
3 35.6725 2.06382 -2.25826
1 35.7064 2.8892 0.343157
2 36.4389 2.10685 0.506353
3 34.0271 5.22863 8.33357
1 33.2113 4.18525 7.18905
1 31.9581 3.65469 7.49835
2 31.4901 3.88921 8.44806
1 31.3081 2.82276 6.5853
2 30.3344 2.41009 6.82475
1 31.9108 2.5212 5.36309
3 31.0929 1.47749 4.22015
1 33.1642 3.05187 5.05373
3 33.9232 2.67581 3.52173
1 33.8139 3.88367 5.96691
2 34.7874 4.29578 5.72657
1 32.1286 -0.179433 0.262605
1 31.67 -1.47994 0.0733169
1 30.3813 -1.72645 -0.400981
1 29.5691 -0.638961 -0.67883
1 31.3138 0.919753 -0.0160624
1 30.0356 0.682241 -0.48637
1 28.195 -0.572585 -1.17895
1 28.946 1.64009 -0.867891
1 27.8287 0.722191 -1.29079
2 33.1445 -0.0140495 0.636003
2 32.3302 -2.32362 0.299871
2 30.0204 -2.74846 -0.549888
2 31.6779 1.94043 0.134012
2 27.6012 -1.45502 -1.41052
2 29.2544 2.31053 -1.6907
2 28.6452 2.28312 -0.0207272
2 26.8703 1.10714 -1.63386
3 -4.91245 11.3667 -4.94086
1 -5.47394 11.9807 -6.48091
1 -6.50302 12.9225 -6.52371
2 -6.95449 13.2736 -5.60239
1 -6.9503 13.4117 -7.75207
2 37.5998 14.1434 -7.78631
1 -6.36892 12.9595 -8.93765
3 -6.93221 13.5751 -10.4766
1 -5.33965 12.0176 -8.89482
3 -4.60808 11.4482 -10.3798
1 -4.89264 11.5287 -7.66642
2 -4.09323 10.7971 -7.63326
3 -2.89874 8.04436 3.6831
1 -3.19378 8.34897 1.98481
1 -4.46996 8.71213 1.55211
2 -5.27856 8.80546 2.26861
1 -4.70456 8.95488 0.197753
2 -5.69575 9.23708 -0.139359
1 -3.66352 8.83463 -0.724068
3 -3.96109 9.13979 -2.42199
1 -2.38711 8.47141 -0.291299
3 -1.07895 8.31962 -1.44464
1 -2.15285 8.22874 1.063
2 -1.16148 7.94665 1.39904
3 -1.092 10.6433 10.6533
1 -1.86214 9.77511 9.34288
1 -1.63542 8.40732 9.18331
2 -0.981906 7.88279 9.8716
1 -2.24981 7.71562 8.13816
2 -2.07424 6.65292 8.01341
1 -3.09084 8.39115 7.25254
3 -3.85988 7.52069 5.94279
1 -3.31761 9.7592 7.41214
3 -4.37186 10.6098 6.30328
1 -2.70312 10.4506 8.45729
2 -2.8793 11.5131 8.58117
3 -2.49893 16.0387 -4.82113
1 -3.48513 16.4047 -6.22026
1 -4.72301 15.7813 -6.38413
2 -5.07345 15.0703 -5.64422
1 -5.50891 16.0736 -7.50003
2 -6.47081 15.5898 -7.6282
1 -5.05745 16.9889 -8.45211
3 -6.04556 17.3531 -9.85049
1 -3.81934 17.6123 -8.28819
3 -3.24985 18.7608 -9.4803
1 -3.03374 17.3199 -7.17229
2 -2.07216 17.8041 -7.04507
3 -2.27658 17.9563 3.12593
1 -3.10706 17.8186 1.5912
1 -4.45579 17.4615 1.55685
2 -4.98886 17.2695 2.48143
1 -5.11743 17.3519 0.332727
2 -6.1653 17.0746 0.305042
1 -4.4309 17.5992 -0.857025
3 -5.26366 17.4609 -2.39064
1 -3.08193 17.9564 -0.822666
3 -2.21763 18.2673 -2.31291
1 -2.42063 18.0659 0.401497
2 -1.37293 18.3433 0.428099
3 -3.01109 15.8569 10.1186
1 -3.84262 16.4735 8.70701
1 -5.23724 16.5205 8.68341
2 -5.80532 16.1748 9.53999
1 -5.89969 17.0123 7.55754
2 -6.9832 17.0492 7.53831
1 -5.1681 17.4571 6.45531
3 -6.002 18.0733 5.04482
1 -3.77322 17.41 6.47892
3 -2.85232 17.967 5.09827
1 -3.11112 16.9182 7.60482
2 -2.02777 16.8817 7.62308
3 4.45664 5.6851 -4.06056
1 4.53826 6.61533 -5.54113
1 3.37884 7.1777 -6.07705
2 2.42749 7.03802 -5.57572
1 3.4446 7.91934 -7.25769
2 2.54433 8.35665 -7.67482
1 4.6693 8.09885 -7.90261
3 4.74833 9.02956 -9.38317
1 5.82892 7.53637 -7.36657
3 7.36676 7.75943 -8.17272
1 5.76284 6.79484 -6.18603
2 6.66353 6.35802 -5.76978
3 5.8585 9.29771 3.10486
1 4.9849 9.16448 1.59386
1 3.6257 8.84779 1.59889
2 3.11122 8.68432 2.53936
1 2.92968 8.74169 0.39367
2 1.87366 8.49568 0.396583
1 3.59229 8.95217 -0.816548
3 2.71643 8.81836 -2.32637
1 4.95173 9.26893 -0.82158
3 5.78611 9.5336 -2.33759
1 5.64742 9.37493 0.383692
2 6.70325 9.62095 0.379701
3 5.85323 8.89342 11.0769
1 4.99414 9.00973 9.55618
1 3.59975 9.06712 9.54473
2 3.04894 9.03961 10.4784
1 2.91532 9.15984 8.3318
2 1.83198 9.20448 8.32193
1 3.6247 9.1952 7.13033
3 2.76326 9.31153 5.6108
1 5.01934 9.13781 7.14178
3 5.91241 9.18192 5.63679
1 5.70342 9.04509 8.35477
2 6.78659 9.00051 8.36357
3 5.87872 17.5982 -6.26434
1 5.05378 17.3699 -7.79124
1 3.68455 17.1006 -7.81152
2 3.13212 17.0328 -6.88086
1 3.02734 16.9186 -9.0294
2 1.96356 16.7094 -9.04616
1 3.73879 17.006 -10.227
3 2.91152 16.7773 56.7362
1 5.10827 17.2753 -10.2067
3 6.00385 17.3856 56.7821
1 5.76513 17.4572 -8.98877
2 6.82876 17.6664 -8.9731
3 5.74997 16.6111 2.99981
1 5.07143 16.8563 1.40496
1 4.1284 17.8634 1.19477
2 3.81634 18.4938 2.02
1 3.5877 18.0583 -0.0771977
2 2.85497 18.8405 -0.241464
1 3.98965 17.2466 -1.13904
3 3.30959 17.4937 -2.7331
1 4.93285 16.2393 -0.928811
3 5.43938 15.2192 -2.25826
1 5.47331 16.0446 0.343157
2 6.20585 15.2623 0.506353
3 3.79405 18.384 8.33357
1 2.97823 17.3406 7.18905
1 1.725 16.8101 7.49835
2 1.25704 17.0446 8.44806
1 1.07501 15.9782 6.5853
2 0.101312 15.5655 6.82475
1 1.67772 15.6766 5.36309
3 0.859819 14.6329 4.22015
1 2.93117 16.2073 5.05373
3 3.69017 15.8312 3.52173
1 3.58085 17.0391 5.96691
2 4.55436 17.4512 5.72657
1 1.89554 12.976 0.262605
1 1.43694 11.6755 0.0733169
1 0.148171 11.429 -0.400981
1 -0.663944 12.5164 -0.67883
1 1.08068 14.0752 -0.0160624
1 -0.1975 13.8376 -0.48637
1 -2.03804 12.5828 -1.17895
1 -1.28713 14.7955 -0.867891
1 -2.40442 13.8776 -1.29079
2 2.91145 13.1414 0.636003
2 2.0971 10.8318 0.299871
2 -0.212644 10.4069 -0.549888
2 1.44477 15.0958 0.134012
2 -2.63193 11.7004 -1.41052
2 -0.978726 15.4659 -1.6907
2 -1.58792 15.4385 -0.0207272
2 -3.36281 14.2625 -1.63386
3 10.2041 11.3667 -4.94086
1 9.6426 11.9807 -6.48091
1 8.61352 12.9225 -6.52371
2 8.16205 13.2736 -5.60239
1 8.16624 13.4117 -7.75207
2 7.36676 14.1434 -7.78631
1 8.74762 12.9595 -8.93765
3 8.18434 13.5751 -10.4766
1 9.7769 12.0176 -8.89482
3 10.5085 11.4482 -10.3798
1 10.2239 11.5287 -7.66642
2 11.0233 10.7971 -7.63326
3 12.2178 8.04436 3.6831
1 11.9228 8.34897 1.98481
1 10.6466 8.71213 1.55211
2 9.83799 8.80546 2.26861
1 10.412 8.95488 0.197753
2 9.4208 9.23708 -0.139359
1 11.453 8.83463 -0.724068
3 11.1554 9.13979 -2.42199
1 12.7294 8.47141 -0.291299
3 14.0376 8.31962 -1.44464
1 12.9637 8.22874 1.063
2 13.9551 7.94665 1.39904
3 14.0245 10.6433 10.6533
1 13.2544 9.77511 9.34288
1 13.4811 8.40732 9.18331
2 14.1346 7.88279 9.8716
1 12.8667 7.71562 8.13816
2 13.0423 6.65292 8.01341
1 12.0257 8.39115 7.25254
3 11.2567 7.52069 5.94279
1 11.7989 9.7592 7.41214
3 10.7447 10.6098 6.30328
1 12.4134 10.4506 8.45729
2 12.2372 11.5131 8.58117
3 12.6176 16.0387 -4.82113
1 11.6314 16.4047 -6.22026
1 10.3935 15.7813 -6.38413
2 10.0431 15.0703 -5.64422
1 9.60763 16.0736 -7.50003
2 8.64573 15.5898 -7.6282
1 10.0591 16.9889 -8.45211
3 9.07098 17.3531 -9.85049
1 11.2972 17.6123 -8.28819
3 11.8667 18.7608 -9.4803
1 12.0828 17.3199 -7.17229
2 13.0444 17.8041 -7.04507
3 12.84 17.9563 3.12593
1 12.0095 17.8186 1.5912
1 10.6608 17.4615 1.55685
2 10.1277 17.2695 2.48143
1 9.99911 17.3519 0.332727
2 8.95125 17.0746 0.305042
1 10.6856 17.5992 -0.857025
3 9.85288 17.4609 -2.39064
1 12.0346 17.9564 -0.822666
3 12.8989 18.2673 -2.31291
1 12.6959 18.0659 0.401497
2 13.7436 18.3433 0.428099
3 12.1055 15.8569 10.1186
1 11.2739 16.4735 8.70701
1 9.8793 16.5205 8.68341
2 9.31122 16.1748 9.53999
1 9.21685 17.0123 7.55754
2 8.13334 17.0492 7.53831
1 9.94844 17.4571 6.45531
3 9.11454 18.0733 5.04482
1 11.3433 17.41 6.47892
3 12.2642 17.967 5.09827
1 12.0054 16.9182 7.60482
2 13.0888 16.8817 7.62308
3 19.5732 5.6851 -4.06056
1 19.6548 6.61533 -5.54113
1 18.4954 7.1777 -6.07705
2 17.544 7.03802 -5.57572
1 18.5611 7.91934 -7.25769
2 17.6609 8.35665 -7.67482
1 19.7858 8.09885 -7.90261
3 19.8649 9.02956 -9.38317
1 20.9455 7.53637 -7.36657
3 22.4833 7.75943 -8.17272
1 20.8794 6.79484 -6.18603
2 21.7801 6.35802 -5.76978
3 20.975 9.29771 3.10486
1 20.1014 9.16448 1.59386
1 18.7422 8.84779 1.59889
2 18.2278 8.68432 2.53936
1 18.0462 8.74169 0.39367
2 16.9902 8.49568 0.396583
1 18.7088 8.95217 -0.816548
3 17.833 8.81836 -2.32637
1 20.0683 9.26893 -0.82158
3 20.9027 9.5336 -2.33759
1 20.764 9.37493 0.383692
2 21.8198 9.62095 0.379701
3 20.9698 8.89342 11.0769
1 20.1107 9.00973 9.55618
1 18.7163 9.06712 9.54473
2 18.1655 9.03961 10.4784
1 18.0319 9.15984 8.3318
2 16.9485 9.20448 8.32193
1 18.7412 9.1952 7.13033
3 17.8798 9.31153 5.6108
1 20.1359 9.13781 7.14178
3 21.029 9.18192 5.63679
1 20.82 9.04509 8.35477
2 21.9031 9.00051 8.36357
3 20.9953 17.5982 -6.26434
1 20.1703 17.3699 -7.79124
1 18.8011 17.1006 -7.81152
2 18.2487 17.0328 -6.88086
1 18.1439 16.9186 -9.0294
2 17.0801 16.7094 -9.04616
1 18.8553 17.006 -10.227
3 18.0281 16.7773 56.7362
1 20.2248 17.2753 -10.2067
3 21.1204 17.3856 56.7821
1 20.8817 17.4572 -8.98877
2 21.9453 17.6664 -8.9731
3 20.8665 16.6111 2.99981
1 20.188 16.8563 1.40496
1 19.2449 17.8634 1.19477
2 18.9329 18.4938 2.02
1 18.7042 18.0583 -0.0771977
2 17.9715 18.8405 -0.241464
1 19.1062 17.2466 -1.13904
3 18.4261 17.4937 -2.7331
1 20.0494 16.2393 -0.928811
3 20.5559 15.2192 -2.25826
1 20.5899 16.0446 0.343157
2 21.3224 15.2623 0.506353
3 18.9106 18.384 8.33357
1 18.0948 17.3406 7.18905
1 16.8415 16.8101 7.49835
2 16.3736 17.0446 8.44806
1 16.1916 15.9782 6.5853
2 15.2179 15.5655 6.82475
1 16.7943 15.6766 5.36309
3 15.9764 14.6329 4.22015
1 18.0477 16.2073 5.05373
3 18.8067 15.8312 3.52173
1 18.6974 17.0391 5.96691
2 19.6709 17.4512 5.72657
1 17.0121 12.976 0.262605
1 16.5535 11.6755 0.0733169
1 15.2647 11.429 -0.400981
1 14.4526 12.5164 -0.67883
1 16.1972 14.0752 -0.0160624
1 14.919 13.8376 -0.48637
1 13.0785 12.5828 -1.17895
1 13.8294 14.7955 -0.867891
1 12.7121 13.8776 -1.29079
2 18.028 13.1414 0.636003
2 17.2136 10.8318 0.299871
2 14.9039 10.4069 -0.549888
2 16.5613 15.0958 0.134012
2 12.4846 11.7004 -1.41052
2 14.1378 15.4659 -1.6907
2 13.5286 15.4385 -0.0207272
2 11.7537 14.2625 -1.63386
3 25.3206 11.3667 -4.94086
1 24.7591 11.9807 -6.48091
1 23.7301 12.9225 -6.52371
2 23.2786 13.2736 -5.60239
1 23.2828 13.4117 -7.75207
2 22.4833 14.1434 -7.78631
1 23.8642 12.9595 -8.93765
3 23.3009 13.5751 -10.4766
1 24.8934 12.0176 -8.89482
3 25.625 11.4482 -10.3798
1 25.3404 11.5287 -7.66642
2 26.1398 10.7971 -7.63326
3 27.3343 8.04436 3.6831
1 27.0393 8.34897 1.98481
1 25.7631 8.71213 1.55211
2 24.9545 8.80546 2.26861
1 25.5285 8.95488 0.197753
2 24.5373 9.23708 -0.139359
1 26.5696 8.83463 -0.724068
3 26.272 9.13979 -2.42199
1 27.846 8.47141 -0.291299
3 29.1541 8.31962 -1.44464
1 28.0802 8.22874 1.063
2 29.0716 7.94665 1.39904
3 29.1411 10.6433 10.6533
1 28.3709 9.77511 9.34288
1 28.5977 8.40732 9.18331
2 29.2512 7.88279 9.8716
1 27.9833 7.71562 8.13816
2 28.1588 6.65292 8.01341
1 27.1422 8.39115 7.25254
3 26.3732 7.52069 5.94279
1 26.9155 9.7592 7.41214
3 25.8612 10.6098 6.30328
1 27.53 10.4506 8.45729
2 27.3538 11.5131 8.58117
3 27.7341 16.0387 -4.82113
1 26.748 16.4047 -6.22026
1 25.5101 15.7813 -6.38413
2 25.1596 15.0703 -5.64422
1 24.7242 16.0736 -7.50003
2 23.7623 15.5898 -7.6282
1 25.1756 16.9889 -8.45211
3 24.1875 17.3531 -9.85049
1 26.4137 17.6123 -8.28819
3 26.9832 18.7608 -9.4803
1 27.1993 17.3199 -7.17229
2 28.1609 17.8041 -7.04507
3 27.9565 17.9563 3.12593
1 27.126 17.8186 1.5912
1 25.7773 17.4615 1.55685
2 25.2442 17.2695 2.48143
1 25.1157 17.3519 0.332727
2 24.0678 17.0746 0.305042
1 25.8022 17.5992 -0.857025
3 24.9694 17.4609 -2.39064
1 27.1511 17.9564 -0.822666
3 28.0154 18.2673 -2.31291
1 27.8125 18.0659 0.401497
2 28.8602 18.3433 0.428099
3 27.222 15.8569 10.1186
1 26.3905 16.4735 8.70701
1 24.9958 16.5205 8.68341
2 24.4278 16.1748 9.53999
1 24.3334 17.0123 7.55754
2 23.2499 17.0492 7.53831
1 25.065 17.4571 6.45531
3 24.2311 18.0733 5.04482
1 26.4599 17.41 6.47892
3 27.3808 17.967 5.09827
1 27.122 16.9182 7.60482
2 28.2053 16.8817 7.62308
3 34.6897 5.6851 -4.06056
1 34.7713 6.61533 -5.54113
1 33.6119 7.1777 -6.07705
2 32.6606 7.03802 -5.57572
1 33.6777 7.91934 -7.25769
2 32.7774 8.35665 -7.67482
1 34.9024 8.09885 -7.90261
3 34.9814 9.02956 -9.38317
1 36.062 7.53637 -7.36657
3 37.5998 7.75943 -8.17272
1 35.9959 6.79484 -6.18603
2 36.8966 6.35802 -5.76978
3 36.0916 9.29771 3.10486
1 35.218 9.16448 1.59386
1 33.8588 8.84779 1.59889
2 33.3443 8.68432 2.53936
1 33.1628 8.74169 0.39367
2 32.1067 8.49568 0.396583
1 33.8254 8.95217 -0.816548
3 32.9495 8.81836 -2.32637
1 35.1848 9.26893 -0.82158
3 36.0192 9.5336 -2.33759
1 35.8805 9.37493 0.383692
2 36.9363 9.62095 0.379701
3 36.0863 8.89342 11.0769
1 35.2272 9.00973 9.55618
1 33.8328 9.06712 9.54473
2 33.282 9.03961 10.4784
1 33.1484 9.15984 8.3318
2 32.0651 9.20448 8.32193
1 33.8578 9.1952 7.13033
3 32.9963 9.31153 5.6108
1 35.2524 9.13781 7.14178
3 36.1455 9.18192 5.63679
1 35.9365 9.04509 8.35477
2 37.0197 9.00051 8.36357
3 36.1118 17.5982 -6.26434
1 35.2869 17.3699 -7.79124
1 33.9176 17.1006 -7.81152
2 33.3652 17.0328 -6.88086
1 33.2604 16.9186 -9.0294
2 32.1966 16.7094 -9.04616
1 33.9719 17.006 -10.227
3 33.1446 16.7773 56.7362
1 35.3413 17.2753 -10.2067
3 36.2369 17.3856 56.7821
1 35.9982 17.4572 -8.98877
2 37.0618 17.6664 -8.9731
3 35.9831 16.6111 2.99981
1 35.3045 16.8563 1.40496
1 34.3615 17.8634 1.19477
2 34.0494 18.4938 2.02
1 33.8208 18.0583 -0.0771977
2 33.0881 18.8405 -0.241464
1 34.2227 17.2466 -1.13904
3 33.5427 17.4937 -2.7331
1 35.1659 16.2393 -0.928811
3 35.6725 15.2192 -2.25826
1 35.7064 16.0446 0.343157
2 36.4389 15.2623 0.506353
3 34.0271 18.384 8.33357
1 33.2113 17.3406 7.18905
1 31.9581 16.8101 7.49835
2 31.4901 17.0446 8.44806
1 31.3081 15.9782 6.5853
2 30.3344 15.5655 6.82475
1 31.9108 15.6766 5.36309
3 31.0929 14.6329 4.22015
1 33.1642 16.2073 5.05373
3 33.9232 15.8312 3.52173
1 33.8139 17.0391 5.96691
2 34.7874 17.4512 5.72657
1 32.1286 12.976 0.262605
1 31.67 11.6755 0.0733169
1 30.3813 11.429 -0.400981
1 29.5691 12.5164 -0.67883
1 31.3138 14.0752 -0.0160624
1 30.0356 13.8376 -0.48637
1 28.195 12.5828 -1.17895
1 28.946 14.7955 -0.867891
1 27.8287 13.8776 -1.29079
2 33.1445 13.1414 0.636003
2 32.3302 10.8318 0.299871
2 30.0204 10.4069 -0.549888
2 31.6779 15.0958 0.134012
2 27.6012 11.7004 -1.41052
2 29.2544 15.4659 -1.6907
2 28.6452 15.4385 -0.0207272
2 26.8703 14.2625 -1.63386
3 -4.91245 24.5221 -4.94086
1 -5.47394 25.1361 -6.48091
1 -6.50302 26.0779 -6.52371
2 -6.95449 26.429 -5.60239
1 -6.9503 26.5671 -7.75207
2 37.5998 27.2988 -7.78631
1 -6.36892 26.1149 -8.93765
3 -6.93221 26.7305 -10.4766
1 -5.33965 25.173 -8.89482
3 -4.60808 24.6036 -10.3798
1 -4.89264 24.6841 -7.66642
2 -4.09323 23.9525 -7.63326
3 -2.89874 21.1998 3.6831
1 -3.19378 21.5044 1.98481
1 -4.46996 21.8675 1.55211
2 -5.27856 21.9609 2.26861
1 -4.70456 22.1103 0.197753
2 -5.69575 22.3925 -0.139359
1 -3.66352 21.99 -0.724068
3 -3.96109 22.2952 -2.42199
1 -2.38711 21.6268 -0.291299
3 -1.07895 21.475 -1.44464
1 -2.15285 21.3841 1.063
2 -1.16148 21.102 1.39904
3 -1.092 23.7987 10.6533
1 -1.86214 22.9305 9.34288
1 -1.63542 21.5627 9.18331
2 -0.981906 21.0382 9.8716
1 -2.24981 20.871 8.13816
2 -2.07424 19.8083 8.01341
1 -3.09084 21.5466 7.25254
3 -3.85988 20.6761 5.94279
1 -3.31761 22.9146 7.41214
3 -4.37186 23.7652 6.30328
1 -2.70312 23.606 8.45729
2 -2.8793 24.6685 8.58117
3 -2.49893 29.1941 -4.82113
1 -3.48513 29.5601 -6.22026
1 -4.72301 28.9368 -6.38413
2 -5.07345 28.2257 -5.64422
1 -5.50891 29.229 -7.50003
2 -6.47081 28.7452 -7.6282
1 -5.05745 30.1443 -8.45211
3 -6.04556 30.5085 -9.85049
1 -3.81934 30.7677 -8.28819
3 -3.24985 31.9162 -9.4803
1 -3.03374 30.4753 -7.17229
2 -2.07216 30.9595 -7.04507
3 -2.27658 31.1117 3.12593
1 -3.10706 30.974 1.5912
1 -4.45579 30.6169 1.55685
2 -4.98886 30.4249 2.48143
1 -5.11743 30.5073 0.332727
2 -6.1653 30.23 0.305042
1 -4.4309 30.7546 -0.857025
3 -5.26366 30.6163 -2.39064
1 -3.08193 31.1118 -0.822666
3 -2.21763 31.4227 -2.31291
1 -2.42063 31.2213 0.401497
2 -1.37293 31.4987 0.428099
3 -3.01109 29.0123 10.1186
1 -3.84262 29.6289 8.70701
1 -5.23724 29.6759 8.68341
2 -5.80532 29.3302 9.53999
1 -5.89969 30.1677 7.55754
2 -6.9832 30.2046 7.53831
1 -5.1681 30.6125 6.45531
3 -6.002 31.2287 5.04482
1 -3.77322 30.5654 6.47892
3 -2.85232 31.1224 5.09827
1 -3.11112 30.0736 7.60482
2 -2.02777 30.0371 7.62308
3 4.45664 18.8405 -4.06056
1 4.53826 19.7707 -5.54113
1 3.37884 20.3331 -6.07705
2 2.42749 20.1934 -5.57572
1 3.4446 21.0747 -7.25769
2 2.54433 21.512 -7.67482
1 4.6693 21.2542 -7.90261
3 4.74833 22.185 -9.38317
1 5.82892 20.6918 -7.36657
3 7.36676 20.9148 -8.17272
1 5.76284 19.9502 -6.18603
2 6.66353 19.5134 -5.76978
3 5.8585 22.4531 3.10486
1 4.9849 22.3199 1.59386
1 3.6257 22.0032 1.59889
2 3.11122 21.8397 2.53936
1 2.92968 21.8971 0.39367
2 1.87366 21.6511 0.396583
1 3.59229 22.1076 -0.816548
3 2.71643 21.9738 -2.32637
1 4.95173 22.4243 -0.82158
3 5.78611 22.689 -2.33759
1 5.64742 22.5303 0.383692
2 6.70325 22.7764 0.379701
3 5.85323 22.0488 11.0769
1 4.99414 22.1651 9.55618
1 3.59975 22.2225 9.54473
2 3.04894 22.195 10.4784
1 2.91532 22.3152 8.3318
2 1.83198 22.3599 8.32193
1 3.6247 22.3506 7.13033
3 2.76326 22.4669 5.6108
1 5.01934 22.2932 7.14178
3 5.91241 22.3373 5.63679
1 5.70342 22.2005 8.35477
2 6.78659 22.1559 8.36357
3 5.87872 30.7536 -6.26434
1 5.05378 30.5253 -7.79124