4347
Atoms. Timestep: 0
3 -3.21497 -4.56038 -6.29576
1 -3.99682 -4.39241 -7.85286
1 -5.38986 -4.37931 -7.93676
2 -5.98748 -4.47325 -7.03681
1 -6.01268 -4.24534 -9.1787
2 -7.09492 -4.23506 -9.24486
1 -5.24306 -4.12447 -10.3367
3 -6.02733 -3.95661 -11.8928
1 -3.84977 -4.13758 -10.2528
3 -2.88124 -3.98621 -11.7032
1 -3.2273 -4.27155 -9.01086
2 -2.14518 -4.28171 -8.94577
3 -3.18584 -4.4308 2.86542
1 -4.04493 -4.31451 1.34472
1 -5.43932 -4.25712 1.33327
2 -5.99013 -4.28462 2.26695
1 -6.12375 -4.16439 0.120336
2 -7.2071 -4.11974 0.110452
1 -5.41437 -4.12902 -1.08114
3 -6.27582 -4.01269 -2.60066
1 -4.01972 -4.18642 -1.06968
3 -3.12665 -4.14231 -2.57468
1 -3.33564 -4.27914 0.1433
2 -2.25248 -4.32372 0.152113
3 -0.79914 -5.75833 11.1993
1 -1.93913 -5.41682 9.91562
1 -3.29209 -5.24394 10.2112
2 -3.6366 -5.32131 11.2365
1 -4.2006 -4.97164 9.18712
2 -5.25196 -4.83717 9.41579
1 -3.75671 -4.87215 7.86762
3 -4.89875 -4.53052 6.58558
1 -2.4035 -5.04506 7.572
3 -1.84313 -4.92099 5.91818
1 -1.49532 -5.31733 8.5962
2 -0.444355 -5.45161 8.36652
3 -3.18584 4.5692 -6.13458
1 -4.04493 4.68549 -7.65528
1 -5.43932 4.74288 -7.66673
2 -5.99013 4.71538 -6.73305
1 -6.12375 4.83561 -8.87966
2 -7.2071 4.88026 -8.88955
1 -5.41437 4.87098 -10.0811
3 -6.27582 4.98731 -11.6007
1 -4.01972 4.81358 -10.0697
3 -3.12665 4.85769 -11.5747
1 -3.33564 4.72086 -8.8567
2 -2.25248 4.67628 -8.84789
3 -3.18584 4.5692 2.86542
1 -4.04493 4.68549 1.34472
1 -5.43932 4.74288 1.33327
2 -5.99013 4.71538 2.26695
1 -6.12375 4.83561 0.120336
2 -7.2071 4.88026 0.110452
1 -5.41437 4.87098 -1.08114
3 -6.27582 4.98731 -2.60066
1 -4.01972 4.81358 -1.06968
3 -3.12665 4.85769 -2.57468
1 -3.33564 4.72086 0.1433
2 -2.25248 4.67628 0.152113
3 -3.18584 4.5692 11.8654
1 -4.04493 4.68549 10.3447
1 -5.43932 4.74288 10.3333
2 -5.99013 4.71538 11.2669
1 -6.12375 4.83561 9.12034
2 -7.2071 4.88026 9.11045
1 -5.41437 4.87098 7.91886
3 -6.27582 4.98731 6.39934
1 -4.01972 4.81358 7.93032
3 -3.12665 4.85769 6.42532
1 -3.33564 4.72086 9.1433
2 -2.25248 4.67628 9.15211
3 5.66403 -4.00502 -5.83088
1 4.88218 -4.02807 -7.39685
1 3.48915 -4.02529 -7.48172
2 2.89152 -4.00885 -6.57703
1 2.86632 -4.04367 -8.73072
2 1.78408 -4.04153 -8.79765
1 3.63594 -4.06483 -9.89487
3 2.85167 -4.08785 -11.4598
1 5.02923 -4.06761 -9.80998
3 5.99776 -4.09413 -11.268
1 5.6517 -4.04923 -8.56095
2 6.73382 -4.05139 -8.4951
3 6.77261 -5.10764 1.89479
1 5.70674 -4.82936 0.53443
1 4.32319 -4.84621 0.716744
2 3.90896 -5.03178 1.70157
1 3.47382 -4.62423 -0.368408
2 2.39875 -4.63713 -0.227724
1 4.00743 -4.38543 -1.63578
3 2.93939 -4.1074 -2.99467
1 5.39124 -4.36858 -1.81813
3 6.0641 -4.06939 -3.4063
1 6.24027 -4.59056 -0.732878
2 7.31501 -4.57746 -0.874579
3 7.39889 -7.02344 10.544
1 6.33302 -6.58145 9.22768
1 4.94946 -6.62039 9.40658
2 4.53524 -6.9246 10.3615
1 4.1001 -6.26783 8.35657
2 3.02503 -6.29778 8.49463
1 4.63371 -5.87635 7.12775
3 3.56567 -5.43479 5.81287
1 6.01752 -5.8374 6.94881
3 6.69038 -5.34689 5.40894
1 6.86655 -6.18999 7.99892
2 7.94128 -6.15972 7.85987
3 4.45005 2.58814 -5.005
1 4.27646 3.29426 -6.59727
1 3.00579 3.57392 -7.10217
2 2.1262 3.35351 -6.50749
1 2.86806 4.13699 -8.37191
2 1.88123 4.35462 -8.76502
1 4.00046 4.42051 -9.13695
3 3.82425 5.12669 -10.7291
1 5.27137 4.14079 -8.63195
3 6.69395 4.49504 -9.58867
1 5.40876 3.57778 -7.3623
2 6.39586 3.36057 -6.97016
3 5.81416 4.5692 2.86542
1 4.95507 4.68549 1.34472
1 3.56068 4.74288 1.33327
2 3.00987 4.71538 2.26695
1 2.87625 4.83561 0.120336
2 1.7929 4.88026 0.110452
1 3.58563 4.87098 -1.08114
3 2.72418 4.98731 -2.60066
1 4.98028 4.81358 -1.06968
3 5.87335 4.85769 -2.57468
1 5.66436 4.72086 0.1433
2 6.74752 4.67628 0.152113
3 5.81416 4.5692 11.8654
1 4.95507 4.68549 10.3447
1 3.56068 4.74288 10.3333
2 3.00987 4.71538 11.2669
1 2.87625 4.83561 9.12034
2 1.7929 4.88026 9.11045
1 3.58563 4.87098 7.91886
3 2.72418 4.98731 6.39934
1 4.98028 4.81358 7.93032
3 5.87335 4.85769 6.42532
1 5.66436 4.72086 9.1433
2 6.74752 4.67628 9.15211
1 1.42264 0.308295 -0.103775
1 0.936319 -0.995797 -0.121157
1 -0.435138 -1.25219 -0.124223
1 -1.3011 -0.170877 -0.109477
1 0.553729 1.40129 -0.0888799
1 -0.806491 1.15397 -0.0918569
1 -2.76382 -0.11504 -0.108325
1 -1.96775 2.1035 -0.0790029
1 -3.15567 1.177 -0.0909259
2 2.50378 0.481481 -0.101739
2 1.6402 -1.83445 -0.132604
2 -0.817768 -2.27702 -0.137883
2 0.939843 2.42481 -0.0752409
2 -3.39475 -1.00209 -0.120042
2 -1.96497 2.77183 -0.959327
2 -1.9645 2.74878 0.818362
2 -4.17634 1.55461 -0.0855659
3 11.9334 -4.56038 -6.29576
1 11.1516 -4.39241 -7.85286
1 9.75852 -4.37931 -7.93676
2 9.1609 -4.47325 -7.03681
1 9.1357 -4.24534 -9.1787
2 8.05346 -4.23506 -9.24486
1 9.90532 -4.12447 -10.3367
3 9.12105 -3.95661 -11.8928
1 11.2986 -4.13758 -10.2528
3 12.2671 -3.98621 -11.7032
1 11.9211 -4.27155 -9.01086
2 13.0032 -4.28171 -8.94577
3 11.9625 -4.4308 2.86542
1 11.1035 -4.31451 1.34472
1 9.70906 -4.25712 1.33327
2 9.15825 -4.28462 2.26695
1 9.02463 -4.16439 0.120336
2 7.94128 -4.11974 0.110452
1 9.73401 -4.12902 -1.08114
3 8.87257 -4.01269 -2.60066
1 11.1287 -4.18642 -1.06968
3 12.0217 -4.14231 -2.57468
1 11.8127 -4.27914 0.1433
2 12.8959 -4.32372 0.152113
3 14.3492 -5.75833 11.1993
1 13.2092 -5.41682 9.91562
1 11.8563 -5.24394 10.2112
2 11.5118 -5.32131 11.2365
1 10.9478 -4.97164 9.18712
2 9.89642 -4.83717 9.41579
1 11.3917 -4.87215 7.86762
3 10.2496 -4.53052 6.58558
1 12.7449 -5.04506 7.572
3 13.3053 -4.92099 5.91818
1 13.6531 -5.31733 8.5962
2 14.704 -5.45161 8.36652
3 11.9625 4.5692 -6.13458
1 11.1035 4.68549 -7.65528
1 9.70906 4.74288 -7.66673
2 9.15825 4.71538 -6.73305
1 9.02463 4.83561 -8.87966
2 7.94128 4.88026 -8.88955
1 9.73401 4.87098 -10.0811
3 8.87257 4.98731 -11.6007
1 11.1287 4.81358 -10.0697
3 12.0217 4.85769 -11.5747
1 11.8127 4.72086 -8.8567
2 12.8959 4.67628 -8.84789
3 11.9625 4.5692 2.86542
1 11.1035 4.68549 1.34472
1 9.70906 4.74288 1.33327
2 9.15825 4.71538 2.26695
1 9.02463 4.83561 0.120336
2 7.94128 4.88026 0.110452
1 9.73401 4.87098 -1.08114
3 8.87257 4.98731 -2.60066
1 11.1287 4.81358 -1.06968
3 12.0217 4.85769 -2.57468
1 11.8127 4.72086 0.1433
2 12.8959 4.67628 0.152113
3 11.9625 4.5692 11.8654
1 11.1035 4.68549 10.3447
1 9.70906 4.74288 10.3333
2 9.15825 4.71538 11.2669
1 9.02463 4.83561 9.12034
2 7.94128 4.88026 9.11045
1 9.73401 4.87098 7.91886
3 8.87257 4.98731 6.39934
1 11.1287 4.81358 7.93032
3 12.0217 4.85769 6.42532
1 11.8127 4.72086 9.1433
2 12.8959 4.67628 9.15211
3 20.8124 -4.00502 -5.83088
1 20.0306 -4.02807 -7.39685
1 18.6375 -4.02529 -7.48172
2 18.0399 -4.00885 -6.57703
1 18.0147 -4.04367 -8.73072
2 16.9325 -4.04153 -8.79765
1 18.7843 -4.06483 -9.89487
3 18.0001 -4.08785 -11.4598
1 20.1776 -4.06761 -9.80998
3 21.1461 -4.09413 -11.268
1 20.8001 -4.04923 -8.56095
2 21.8822 -4.05139 -8.4951
3 21.921 -5.10764 1.89479
1 20.8551 -4.82936 0.53443
1 19.4716 -4.84621 0.716744
2 19.0573 -5.03178 1.70157
1 18.6222 -4.62423 -0.368408
2 17.5471 -4.63713 -0.227724
1 19.1558 -4.38543 -1.63578
3 18.0878 -4.1074 -2.99467
1 20.5396 -4.36858 -1.81813
3 21.2125 -4.06939 -3.4063
1 21.3886 -4.59056 -0.732878
2 22.4634 -4.57746 -0.874579
3 22.5473 -7.02344 10.544
1 21.4814 -6.58145 9.22768
1 20.0978 -6.62039 9.40658
2 19.6836 -6.9246 10.3615
1 19.2485 -6.26783 8.35657
2 18.1734 -6.29778 8.49463
1 19.7821 -5.87635 7.12775
3 18.714 -5.43479 5.81287
1 21.1659 -5.8374 6.94881
3 21.8388 -5.34689 5.40894
1 22.0149 -6.18999 7.99892
2 23.0897 -6.15972 7.85987
3 19.5984 2.58814 -5.005
1 19.4248 3.29426 -6.59727
1 18.1542 3.57392 -7.10217
2 17.2746 3.35351 -6.50749
1 18.0164 4.13699 -8.37191
2 17.0296 4.35462 -8.76502
1 19.1488 4.42051 -9.13695
3 18.9726 5.12669 -10.7291
1 20.4197 4.14079 -8.63195
3 21.8423 4.49504 -9.58867
1 20.5571 3.57778 -7.3623
2 21.5442 3.36057 -6.97016
3 20.9625 4.5692 2.86542
1 20.1035 4.68549 1.34472
1 18.7091 4.74288 1.33327
2 18.1583 4.71538 2.26695
1 18.0246 4.83561 0.120336
2 16.9413 4.88026 0.110452
1 18.734 4.87098 -1.08114
3 17.8726 4.98731 -2.60066
1 20.1287 4.81358 -1.06968
3 21.0217 4.85769 -2.57468
1 20.8127 4.72086 0.1433
2 21.8959 4.67628 0.152113
3 20.9625 4.5692 11.8654
1 20.1035 4.68549 10.3447
1 18.7091 4.74288 10.3333
2 18.1583 4.71538 11.2669
1 18.0246 4.83561 9.12034
2 16.9413 4.88026 9.11045
1 18.734 4.87098 7.91886
3 17.8726 4.98731 6.39934
1 20.1287 4.81358 7.93032
3 21.0217 4.85769 6.42532
1 20.8127 4.72086 9.1433
2 21.8959 4.67628 9.15211
1 16.571 0.308295 -0.103775
1 16.0847 -0.995797 -0.121157
1 14.7132 -1.25219 -0.124223
1 13.8473 -0.170877 -0.109477
1 15.7021 1.40129 -0.0888799
1 14.3419 1.15397 -0.0918569
1 12.3846 -0.11504 -0.108325
1 13.1806 2.1035 -0.0790029
1 11.9927 1.177 -0.0909259
2 17.6522 0.481481 -0.101739
2 16.7886 -1.83445 -0.132604
2 14.3306 -2.27702 -0.137883
2 16.0882 2.42481 -0.0752409
2 11.7536 -1.00209 -0.120042
2 13.1834 2.77183 -0.959327
2 13.1839 2.74878 0.818362
2 10.972 1.55461 -0.0855659
3 27.0818 -4.56038 -6.29576
1 26.2999 -4.39241 -7.85286
1 24.9069 -4.37931 -7.93676
2 24.3093 -4.47325 -7.03681
1 24.2841 -4.24534 -9.1787
2 23.2018 -4.23506 -9.24486
1 25.0537 -4.12447 -10.3367
3 24.2694 -3.95661 -11.8928
1 26.447 -4.13758 -10.2528
3 27.4155 -3.98621 -11.7032
1 27.0695 -4.27155 -9.01086
2 28.1516 -4.28171 -8.94577
3 27.1109 -4.4308 2.86542
1 26.2518 -4.31451 1.34472
1 24.8574 -4.25712 1.33327
2 24.3066 -4.28462 2.26695
1 24.173 -4.16439 0.120336
2 23.0897 -4.11974 0.110452
1 24.8824 -4.12902 -1.08114
3 24.0209 -4.01269 -2.60066
1 26.277 -4.18642 -1.06968
3 27.1701 -4.14231 -2.57468
1 26.9611 -4.27914 0.1433
2 28.0443 -4.32372 0.152113
3 29.4976 -5.75833 11.1993
1 28.3576 -5.41682 9.91562
1 27.0047 -5.24394 10.2112
2 26.6602 -5.32131 11.2365
1 26.0962 -4.97164 9.18712
2 25.0448 -4.83717 9.41579
1 26.5401 -4.87215 7.86762
3 25.398 -4.53052 6.58558
1 27.8933 -5.04506 7.572
3 28.4536 -4.92099 5.91818
1 28.8014 -5.31733 8.5962
2 29.8524 -5.45161 8.36652
3 27.1109 4.5692 -6.13458
1 26.2518 4.68549 -7.65528
1 24.8574 4.74288 -7.66673
2 24.3066 4.71538 -6.73305
1 24.173 4.83561 -8.87966
2 23.0897 4.88026 -8.88955
1 24.8824 4.87098 -10.0811
3 24.0209 4.98731 -11.6007
1 26.277 4.81358 -10.0697
3 27.1701 4.85769 -11.5747
1 26.9611 4.72086 -8.8567
2 28.0443 4.67628 -8.84789
3 27.1109 4.5692 2.86542
1 26.2518 4.68549 1.34472
1 24.8574 4.74288 1.33327
2 24.3066 4.71538 2.26695
1 24.173 4.83561 0.120336
2 23.0897 4.88026 0.110452
1 24.8824 4.87098 -1.08114
3 24.0209 4.98731 -2.60066
1 26.277 4.81358 -1.06968
3 27.1701 4.85769 -2.57468
1 26.9611 4.72086 0.1433
2 28.0443 4.67628 0.152113
3 27.1109 4.5692 11.8654
1 26.2518 4.68549 10.3447
1 24.8574 4.74288 10.3333
2 24.3066 4.71538 11.2669
1 24.173 4.83561 9.12034
2 23.0897 4.88026 9.11045
1 24.8824 4.87098 7.91886
3 24.0209 4.98731 6.39934
1 26.277 4.81358 7.93032
3 27.1701 4.85769 6.42532
1 26.9611 4.72086 9.1433
2 28.0443 4.67628 9.15211
3 35.9608 -4.00502 -5.83088
1 35.1789 -4.02807 -7.39685
1 33.7859 -4.02529 -7.48172
2 33.1883 -4.00885 -6.57703
1 33.1631 -4.04367 -8.73072
2 32.0808 -4.04153 -8.79765
1 33.9327 -4.06483 -9.89487
3 33.1484 -4.08785 -11.4598
1 35.326 -4.06761 -9.80998
3 36.2945 -4.09413 -11.268
1 35.9485 -4.04923 -8.56095
2 37.0306 -4.05139 -8.4951
3 37.0694 -5.10764 1.89479
1 36.0035 -4.82936 0.53443
1 34.6199 -4.84621 0.716744
2 34.2057 -5.03178 1.70157
1 33.7706 -4.62423 -0.368408
2 32.6955 -4.63713 -0.227724
1 34.3042 -4.38543 -1.63578
3 33.2362 -4.1074 -2.99467
1 35.688 -4.36858 -1.81813
3 36.3609 -4.06939 -3.4063
1 36.537 -4.59056 -0.732878
2 37.6118 -4.57746 -0.874579
3 37.6956 -7.02344 10.544
1 36.6298 -6.58145 9.22768
1 35.2462 -6.62039 9.40658
2 34.832 -6.9246 10.3615
1 34.3969 -6.26783 8.35657
2 33.3218 -6.29778 8.49463
1 34.9305 -5.87635 7.12775
3 33.8624 -5.43479 5.81287
1 36.3143 -5.8374 6.94881
3 36.9871 -5.34689 5.40894
1 37.1633 -6.18999 7.99892
2 -7.2071 -6.15972 7.85987
3 34.7468 2.58814 -5.005
1 34.5732 3.29426 -6.59727
1 33.3025 3.57392 -7.10217
2 32.423 3.35351 -6.50749
1 33.1648 4.13699 -8.37191
2 32.178 4.35462 -8.76502
1 34.2972 4.42051 -9.13695
3 34.121 5.12669 -10.7291
1 35.5681 4.14079 -8.63195
3 36.9907 4.49504 -9.58867
1 35.7055 3.57778 -7.3623
2 36.6926 3.36057 -6.97016
3 36.1109 4.5692 2.86542
1 35.2518 4.68549 1.34472
1 33.8574 4.74288 1.33327
2 33.3066 4.71538 2.26695
1 33.173 4.83561 0.120336
2 32.0897 4.88026 0.110452
1 33.8824 4.87098 -1.08114
3 33.0209 4.98731 -2.60066
1 35.277 4.81358 -1.06968
3 36.1701 4.85769 -2.57468
1 35.9611 4.72086 0.1433
2 37.0443 4.67628 0.152113
3 36.1109 4.5692 11.8654
1 35.2518 4.68549 10.3447
1 33.8574 4.74288 10.3333
2 33.3066 4.71538 11.2669
1 33.173 4.83561 9.12034
2 32.0897 4.88026 9.11045
1 33.8824 4.87098 7.91886
3 33.0209 4.98731 6.39934
1 35.277 4.81358 7.93032
3 36.1701 4.85769 6.42532
1 35.9611 4.72086 9.1433
2 37.0443 4.67628 9.15211
1 31.7194 0.308295 -0.103775
1 31.2331 -0.995797 -0.121157
1 29.8616 -1.25219 -0.124223
1 28.9957 -0.170877 -0.109477
1 30.8505 1.40129 -0.0888799
1 29.4903 1.15397 -0.0918569
1 27.5329 -0.11504 -0.108325
1 28.329 2.1035 -0.0790029
1 27.1411 1.177 -0.0909259
2 32.8005 0.481481 -0.101739
2 31.937 -1.83445 -0.132604
2 29.479 -2.27702 -0.137883
2 31.2366 2.42481 -0.0752409
2 26.902 -1.00209 -0.120042
2 28.3318 2.77183 -0.959327
2 28.3323 2.74878 0.818362
2 26.1204 1.55461 -0.0855659
3 -3.21497 7.58975 -6.29576
1 -3.99682 7.75772 -7.85286
1 -5.38986 7.77082 -7.93676
2 -5.98748 7.67688 -7.03681
1 -6.01268 7.90479 -9.1787
2 -7.09492 7.91507 -9.24486
1 -5.24306 8.02566 -10.3367
3 -6.02733 8.19353 -11.8928
1 -3.84977 8.01256 -10.2528
3 -2.88124 8.16392 -11.7032
1 -3.2273 7.87859 -9.01086
2 -2.14518 7.86842 -8.94577
3 -3.18584 7.71933 2.86542
1 -4.04493 7.83563 1.34472
1 -5.43932 7.89302 1.33327
2 -5.99013 7.86551 2.26695
1 -6.12375 7.98575 0.120336
2 -7.2071 8.03039 0.110452
1 -5.41437 8.02111 -1.08114
3 -6.27582 8.13744 -2.60066
1 -4.01972 7.96371 -1.06968
3 -3.12665 8.00782 -2.57468
1 -3.33564 7.87099 0.1433
2 -2.25248 7.82641 0.152113
3 -0.79914 6.3918 11.1993
1 -1.93913 6.73331 9.91562
1 -3.29209 6.90619 10.2112
2 -3.6366 6.82882 11.2365
1 -4.2006 7.17849 9.18712
2 -5.25196 7.31297 9.41579
1 -3.75671 7.27798 7.86762
3 -4.89875 7.61961 6.58558
1 -2.4035 7.10507 7.572
3 -1.84313 7.22914 5.91818
1 -1.49532 6.83281 8.5962
2 -0.444355 6.69852 8.36652
3 -3.18584 16.7193 -6.13458
1 -4.04493 16.8356 -7.65528
1 -5.43932 16.893 -7.66673
2 -5.99013 16.8655 -6.73305
1 -6.12375 16.9857 -8.87966
2 -7.2071 17.0304 -8.88955
1 -5.41437 17.0211 -10.0811
3 -6.27582 17.1374 -11.6007
1 -4.01972 16.9637 -10.0697
3 -3.12665 17.0078 -11.5747
1 -3.33564 16.871 -8.8567
2 -2.25248 16.8264 -8.84789
3 -3.18584 16.7193 2.86542
1 -4.04493 16.8356 1.34472
1 -5.43932 16.893 1.33327
2 -5.99013 16.8655 2.26695
1 -6.12375 16.9857 0.120336
2 -7.2071 17.0304 0.110452
1 -5.41437 17.0211 -1.08114
3 -6.27582 17.1374 -2.60066
1 -4.01972 16.9637 -1.06968
3 -3.12665 17.0078 -2.57468
1 -3.33564 16.871 0.1433
2 -2.25248 16.8264 0.152113
3 -3.18584 16.7193 11.8654
1 -4.04493 16.8356 10.3447
1 -5.43932 16.893 10.3333
2 -5.99013 16.8655 11.2669
1 -6.12375 16.9857 9.12034
2 -7.2071 17.0304 9.11045
1 -5.41437 17.0211 7.91886
3 -6.27582 17.1374 6.39934
1 -4.01972 16.9637 7.93032
3 -3.12665 17.0078 6.42532
1 -3.33564 16.871 9.1433
2 -2.25248 16.8264 9.15211
3 5.66403 8.14511 -5.83088
1 4.88218 8.12206 -7.39685
1 3.48915 8.12484 -7.48172
2 2.89152 8.14128 -6.57703
1 2.86632 8.10646 -8.73072
2 1.78408 8.1086 -8.79765
1 3.63594 8.0853 -9.89487
3 2.85167 8.06228 -11.4598
1 5.02923 8.08252 -9.80998
3 5.99776 8.056 -11.268
1 5.6517 8.1009 -8.56095
2 6.73382 8.09875 -8.4951
3 6.77261 7.0425 1.89479
1 5.70674 7.32077 0.53443
1 4.32319 7.30393 0.716744
2 3.90896 7.11835 1.70157
1 3.47382 7.5259 -0.368408
2 2.39875 7.513 -0.227724
1 4.00743 7.76471 -1.63578
3 2.93939 8.04273 -2.99467
1 5.39124 7.78155 -1.81813
3 6.0641 8.08075 -3.4063
1 6.24027 7.55957 -0.732878
2 7.31501 7.57267 -0.874579
3 7.39889 5.12669 10.544
1 6.33302 5.56868 9.22768
1 4.94946 5.52974 9.40658
2 4.53524 5.22553 10.3615
1 4.1001 5.8823 8.35657
2 3.02503 5.85236 8.49463
1 4.63371 6.27379 7.12775
3 3.56567 6.71535 5.81287
1 6.01752 6.31273 6.94881
3 6.69038 6.80324 5.40894
1 6.86655 5.96014 7.99892
2 7.94128 5.99041 7.85987
3 4.45005 14.7383 -5.005
1 4.27646 15.4444 -6.59727
1 3.00579 15.7241 -7.10217
2 2.1262 15.5036 -6.50749
1 2.86806 16.2871 -8.37191
2 1.88123 16.5047 -8.76502
1 4.00046 16.5706 -9.13695
3 3.82425 17.2768 -10.7291
1 5.27137 16.2909 -8.63195
3 6.69395 16.6452 -9.58867
1 5.40876 15.7279 -7.3623
2 6.39586 15.5107 -6.97016
3 5.81416 16.7193 2.86542
1 4.95507 16.8356 1.34472
1 3.56068 16.893 1.33327
2 3.00987 16.8655 2.26695
1 2.87625 16.9857 0.120336
2 1.7929 17.0304 0.110452
1 3.58563 17.0211 -1.08114
3 2.72418 17.1374 -2.60066
1 4.98028 16.9637 -1.06968
3 5.87335 17.0078 -2.57468
1 5.66436 16.871 0.1433
2 6.74752 16.8264 0.152113
3 5.81416 16.7193 11.8654
1 4.95507 16.8356 10.3447
1 3.56068 16.893 10.3333
2 3.00987 16.8655 11.2669
1 2.87625 16.9857 9.12034
2 1.7929 17.0304 9.11045
1 3.58563 17.0211 7.91886
3 2.72418 17.1374 6.39934
1 4.98028 16.9637 7.93032
3 5.87335 17.0078 6.42532
1 5.66436 16.871 9.1433
2 6.74752 16.8264 9.15211
1 1.42264 12.4584 -0.103775
1 0.936319 11.1543 -0.121157
1 -0.435138 10.8979 -0.124223
1 -1.3011 11.9793 -0.109477
1 0.553729 13.5514 -0.0888799
1 -0.806491 13.3041 -0.0918569
1 -2.76382 12.0351 -0.108325
1 -1.96775 14.2536 -0.0790029
1 -3.15567 13.3271 -0.0909259
2 2.50378 12.6316 -0.101739
2 1.6402 10.3157 -0.132604
2 -0.817768 9.87311 -0.137883
2 0.939843 14.5749 -0.0752409
2 -3.39475 11.148 -0.120042
2 -1.96497 14.922 -0.959327
2 -1.9645 14.8989 0.818362
2 -4.17634 13.7047 -0.0855659
3 11.9334 7.58975 -6.29576
1 11.1516 7.75772 -7.85286
1 9.75852 7.77082 -7.93676
2 9.1609 7.67688 -7.03681
1 9.1357 7.90479 -9.1787
2 8.05346 7.91507 -9.24486
1 9.90532 8.02566 -10.3367
3 9.12105 8.19353 -11.8928
1 11.2986 8.01256 -10.2528
3 12.2671 8.16392 -11.7032
1 11.9211 7.87859 -9.01086
2 13.0032 7.86842 -8.94577
3 11.9625 7.71933 2.86542
1 11.1035 7.83563 1.34472
1 9.70906 7.89302 1.33327
2 9.15825 7.86551 2.26695
1 9.02463 7.98575 0.120336
2 7.94128 8.03039 0.110452
1 9.73401 8.02111 -1.08114
3 8.87257 8.13744 -2.60066
1 11.1287 7.96371 -1.06968
3 12.0217 8.00782 -2.57468
1 11.8127 7.87099 0.1433
2 12.8959 7.82641 0.152113
3 14.3492 6.3918 11.1993
1 13.2092 6.73331 9.91562
1 11.8563 6.90619 10.2112
2 11.5118 6.82882 11.2365
1 10.9478 7.17849 9.18712
2 9.89642 7.31297 9.41579
1 11.3917 7.27798 7.86762
3 10.2496 7.61961 6.58558
1 12.7449 7.10507 7.572
3 13.3053 7.22914 5.91818
1 13.6531 6.83281 8.5962
2 14.704 6.69852 8.36652
3 11.9625 16.7193 -6.13458
1 11.1035 16.8356 -7.65528
1 9.70906 16.893 -7.66673
2 9.15825 16.8655 -6.73305
1 9.02463 16.9857 -8.87966
2 7.94128 17.0304 -8.88955
1 9.73401 17.0211 -10.0811
3 8.87257 17.1374 -11.6007
1 11.1287 16.9637 -10.0697
3 12.0217 17.0078 -11.5747
1 11.8127 16.871 -8.8567
2 12.8959 16.8264 -8.84789
3 11.9625 16.7193 2.86542
1 11.1035 16.8356 1.34472
1 9.70906 16.893 1.33327
2 9.15825 16.8655 2.26695
1 9.02463 16.9857 0.120336
2 7.94128 17.0304 0.110452
1 9.73401 17.0211 -1.08114
3 8.87257 17.1374 -2.60066
1 11.1287 16.9637 -1.06968
3 12.0217 17.0078 -2.57468
1 11.8127 16.871 0.1433
2 12.8959 16.8264 0.152113
3 11.9625 16.7193 11.8654
1 11.1035 16.8356 10.3447
1 9.70906 16.893 10.3333
2 9.15825 16.8655 11.2669
1 9.02463 16.9857 9.12034
2 7.94128 17.0304 9.11045
1 9.73401 17.0211 7.91886
3 8.87257 17.1374 6.39934
1 11.1287 16.9637 7.93032
3 12.0217 17.0078 6.42532
1 11.8127 16.871 9.1433
2 12.8959 16.8264 9.15211
3 20.8124 8.14511 -5.83088
1 20.0306 8.12206 -7.39685
1 18.6375 8.12484 -7.48172
2 18.0399 8.14128 -6.57703
1 18.0147 8.10646 -8.73072
2 16.9325 8.1086 -8.79765
1 18.7843 8.0853 -9.89487
3 18.0001 8.06228 -11.4598
1 20.1776 8.08252 -9.80998
3 21.1461 8.056 -11.268
1 20.8001 8.1009 -8.56095
2 21.8822 8.09875 -8.4951
3 21.921 7.0425 1.89479
1 20.8551 7.32077 0.53443
1 19.4716 7.30393 0.716744
2 19.0573 7.11835 1.70157
1 18.6222 7.5259 -0.368408
2 17.5471 7.513 -0.227724
1 19.1558 7.76471 -1.63578
3 18.0878 8.04273 -2.99467
1 20.5396 7.78155 -1.81813
3 21.2125 8.08075 -3.4063
1 21.3886 7.55957 -0.732878
2 22.4634 7.57267 -0.874579
3 22.5473 5.12669 10.544
1 21.4814 5.56868 9.22768
1 20.0978 5.52974 9.40658
2 19.6836 5.22553 10.3615
1 19.2485 5.8823 8.35657
2 18.1734 5.85236 8.49463
1 19.7821 6.27379 7.12775
3 18.714 6.71535 5.81287
1 21.1659 6.31273 6.94881
3 21.8388 6.80324 5.40894
1 22.0149 5.96014 7.99892
2 23.0897 5.99041 7.85987
3 19.5984 14.7383 -5.005
1 19.4248 15.4444 -6.59727
1 18.1542 15.7241 -7.10217
2 17.2746 15.5036 -6.50749
1 18.0164 16.2871 -8.37191
2 17.0296 16.5047 -8.76502
1 19.1488 16.5706 -9.13695
3 18.9726 17.2768 -10.7291
1 20.4197 16.2909 -8.63195
3 21.8423 16.6452 -9.58867
1 20.5571 15.7279 -7.3623
2 21.5442 15.5107 -6.97016
3 20.9625 16.7193 2.86542
1 20.1035 16.8356 1.34472
1 18.7091 16.893 1.33327
2 18.1583 16.8655 2.26695
1 18.0246 16.9857 0.120336
2 16.9413 17.0304 0.110452
1 18.734 17.0211 -1.08114
3 17.8726 17.1374 -2.60066
1 20.1287 16.9637 -1.06968
3 21.0217 17.0078 -2.57468
1 20.8127 16.871 0.1433
2 21.8959 16.8264 0.152113
3 20.9625 16.7193 11.8654
1 20.1035 16.8356 10.3447
1 18.7091 16.893 10.3333
2 18.1583 16.8655 11.2669
1 18.0246 16.9857 9.12034
2 16.9413 17.0304 9.11045
1 18.734 17.0211 7.91886
3 17.8726 17.1374 6.39934
1 20.1287 16.9637 7.93032
3 21.0217 17.0078 6.42532
1 20.8127 16.871 9.1433
2 21.8959 16.8264 9.15211
1 16.571 12.4584 -0.103775
1 16.0847 11.1543 -0.121157
1 14.7132 10.8979 -0.124223
1 13.8473 11.9793 -0.109477
1 15.7021 13.5514 -0.0888799
1 14.3419 13.3041 -0.0918569
1 12.3846 12.0351 -0.108325
1 13.1806 14.2536 -0.0790029
1 11.9927 13.3271 -0.0909259
2 17.6522 12.6316 -0.101739
2 16.7886 10.3157 -0.132604
2 14.3306 9.87311 -0.137883
2 16.0882 14.5749 -0.0752409
2 11.7536 11.148 -0.120042
2 13.1834 14.922 -0.959327
2 13.1839 14.8989 0.818362
2 10.972 13.7047 -0.0855659
3 27.0818 7.58975 -6.29576
1 26.2999 7.75772 -7.85286
1 24.9069 7.77082 -7.93676
2 24.3093 7.67688 -7.03681
1 24.2841 7.90479 -9.1787
2 23.2018 7.91507 -9.24486
1 25.0537 8.02566 -10.3367
3 24.2694 8.19353 -11.8928
1 26.447 8.01256 -10.2528
3 27.4155 8.16392 -11.7032
1 27.0695 7.87859 -9.01086
2 28.1516 7.86842 -8.94577
3 27.1109 7.71933 2.86542
1 26.2518 7.83563 1.34472
1 24.8574 7.89302 1.33327
2 24.3066 7.86551 2.26695
1 24.173 7.98575 0.120336
2 23.0897 8.03039 0.110452
1 24.8824 8.02111 -1.08114
3 24.0209 8.13744 -2.60066
1 26.277 7.96371 -1.06968
3 27.1701 8.00782 -2.57468
1 26.9611 7.87099 0.1433
2 28.0443 7.82641 0.152113
3 29.4976 6.3918 11.1993
1 28.3576 6.73331 9.91562
1 27.0047 6.90619 10.2112
2 26.6602 6.82882 11.2365
1 26.0962 7.17849 9.18712
2 25.0448 7.31297 9.41579
1 26.5401 7.27798 7.86762
3 25.398 7.61961 6.58558
1 27.8933 7.10507 7.572
3 28.4536 7.22914 5.91818
1 28.8014 6.83281 8.5962
2 29.8524 6.69852 8.36652
3 27.1109 16.7193 -6.13458
1 26.2518 16.8356 -7.65528
1 24.8574 16.893 -7.66673
2 24.3066 16.8655 -6.73305
1 24.173 16.9857 -8.87966
2 23.0897 17.0304 -8.88955
1 24.8824 17.0211 -10.0811
3 24.0209 17.1374 -11.6007
1 26.277 16.9637 -10.0697
3 27.1701 17.0078 -11.5747
1 26.9611 16.871 -8.8567
2 28.0443 16.8264 -8.84789
3 27.1109 16.7193 2.86542
1 26.2518 16.8356 1.34472
1 24.8574 16.893 1.33327
2 24.3066 16.8655 2.26695
1 24.173 16.9857 0.120336
2 23.0897 17.0304 0.110452
1 24.8824 17.0211 -1.08114
3 24.0209 17.1374 -2.60066
1 26.277 16.9637 -1.06968
3 27.1701 17.0078 -2.57468
1 26.9611 16.871 0.1433
2 28.0443 16.8264 0.152113
3 27.1109 16.7193 11.8654
1 26.2518 16.8356 10.3447
1 24.8574 16.893 10.3333
2 24.3066 16.8655 11.2669
1 24.173 16.9857 9.12034
2 23.0897 17.0304 9.11045
1 24.8824 17.0211 7.91886
3 24.0209 17.1374 6.39934
1 26.277 16.9637 7.93032
3 27.1701 17.0078 6.42532
1 26.9611 16.871 9.1433
2 28.0443 16.8264 9.15211
3 35.9608 8.14511 -5.83088
1 35.1789 8.12206 -7.39685
1 33.7859 8.12484 -7.48172
2 33.1883 8.14128 -6.57703
1 33.1631 8.10646 -8.73072
2 32.0808 8.1086 -8.79765
1 33.9327 8.0853 -9.89487
3 33.1484 8.06228 -11.4598
1 35.326 8.08252 -9.80998
3 36.2945 8.056 -11.268
1 35.9485 8.1009 -8.56095
2 37.0306 8.09875 -8.4951
3 37.0694 7.0425 1.89479
1 36.0035 7.32077 0.53443
1 34.6199 7.30393 0.716744
2 34.2057 7.11835 1.70157
1 33.7706 7.5259 -0.368408
2 32.6955 7.513 -0.227724
1 34.3042 7.76471 -1.63578
3 33.2362 8.04273 -2.99467
1 35.688 7.78155 -1.81813
3 36.3609 8.08075 -3.4063
1 36.537 7.55957 -0.732878
2 37.6118 7.57267 -0.874579
3 37.6956 5.12669 10.544
1 36.6298 5.56868 9.22768
1 35.2462 5.52974 9.40658
2 34.832 5.22553 10.3615
1 34.3969 5.8823 8.35657
2 33.3218 5.85236 8.49463
1 34.9305 6.27379 7.12775
3 33.8624 6.71535 5.81287
1 36.3143 6.31273 6.94881
3 36.9871 6.80324 5.40894
1 37.1633 5.96014 7.99892
2 -7.2071 5.99041 7.85987
3 34.7468 14.7383 -5.005
1 34.5732 15.4444 -6.59727
1 33.3025 15.7241 -7.10217
2 32.423 15.5036 -6.50749
1 33.1648 16.2871 -8.37191
2 32.178 16.5047 -8.76502
1 34.2972 16.5706 -9.13695
3 34.121 17.2768 -10.7291
1 35.5681 16.2909 -8.63195
3 36.9907 16.6452 -9.58867
1 35.7055 15.7279 -7.3623
2 36.6926 15.5107 -6.97016
3 36.1109 16.7193 2.86542
1 35.2518 16.8356 1.34472
1 33.8574 16.893 1.33327
2 33.3066 16.8655 2.26695
1 33.173 16.9857 0.120336
2 32.0897 17.0304 0.110452
1 33.8824 17.0211 -1.08114
3 33.0209 17.1374 -2.60066
1 35.277 16.9637 -1.06968
3 36.1701 17.0078 -2.57468
1 35.9611 16.871 0.1433
2 37.0443 16.8264 0.152113
3 36.1109 16.7193 11.8654
1 35.2518 16.8356 10.3447
1 33.8574 16.893 10.3333
2 33.3066 16.8655 11.2669
1 33.173 16.9857 9.12034
2 32.0897 17.0304 9.11045
1 33.8824 17.0211 7.91886
3 33.0209 17.1374 6.39934
1 35.277 16.9637 7.93032
3 36.1701 17.0078 6.42532
1 35.9611 16.871 9.1433
2 37.0443 16.8264 9.15211
1 31.7194 12.4584 -0.103775
1 31.2331 11.1543 -0.121157
1 29.8616 10.8979 -0.124223
1 28.9957 11.9793 -0.109477
1 30.8505 13.5514 -0.0888799
1 29.4903 13.3041 -0.0918569
1 27.5329 12.0351 -0.108325
1 28.329 14.2536 -0.0790029
1 27.1411 13.3271 -0.0909259
2 32.8005 12.6316 -0.101739
2 31.937 10.3157 -0.132604
2 29.479 9.87311 -0.137883
2 31.2366 14.5749 -0.0752409
2 26.902 11.148 -0.120042
2 28.3318 14.922 -0.959327
2 28.3323 14.8989 0.818362
2 26.1204 13.7047 -0.0855659
3 -3.21497 19.7399 -6.29576
1 -3.99682 19.9079 -7.85286
1 -5.38986 19.921 -7.93676
2 -5.98748 19.827 -7.03681
1 -6.01268 20.0549 -9.1787
2 -7.09492 20.0652 -9.24486
1 -5.24306 20.1758 -10.3367
3 -6.02733 20.3437 -11.8928
1 -3.84977 20.1627 -10.2528
3 -2.88124 20.3141 -11.7032
1 -3.2273 20.0287 -9.01086
2 -2.14518 20.0186 -8.94577
3 -3.18584 19.8695 2.86542
1 -4.04493 19.9858 1.34472
1 -5.43932 20.0431 1.33327
2 -5.99013 20.0156 2.26695
1 -6.12375 20.1359 0.120336
2 -7.2071 20.1805 0.110452
1 -5.41437 20.1712 -1.08114
3 -6.27582 20.2876 -2.60066
1 -4.01972 20.1138 -1.06968
3 -3.12665 20.1579 -2.57468
1 -3.33564 20.0211 0.1433
2 -2.25248 19.9765 0.152113
3 -0.79914 18.5419 11.1993
1 -1.93913 18.8834 9.91562
1 -3.29209 19.0563 10.2112
2 -3.6366 18.979 11.2365
1 -4.2006 19.3286 9.18712
2 -5.25196 19.4631 9.41579
1 -3.75671 19.4281 7.86762
3 -4.89875 19.7697 6.58558
1 -2.4035 19.2552 7.572
3 -1.84313 19.3793 5.91818
1 -1.49532 18.9829 8.5962
2 -0.444355 18.8487 8.36652
3 -3.18584 28.8695 -6.13458
1 -4.04493 28.9858 -7.65528
1 -5.43932 29.0431 -7.66673
2 -5.99013 29.0156 -6.73305
1 -6.12375 29.1359 -8.87966
2 -7.2071 29.1805 -8.88955
1 -5.41437 29.1712 -10.0811
3 -6.27582 29.2876 -11.6007
1 -4.01972 29.1138 -10.0697
3 -3.12665 29.1579 -11.5747
1 -3.33564 29.0211 -8.8567
2 -2.25248 28.9765 -8.84789
3 -3.18584 28.8695 2.86542
1 -4.04493 28.9858 1.34472
1 -5.43932 29.0431 1.33327
2 -5.99013 29.0156 2.26695
1 -6.12375 29.1359 0.120336
2 -7.2071 29.1805 0.110452
1 -5.41437 29.1712 -1.08114
3 -6.27582 29.2876 -2.60066
1 -4.01972 29.1138 -1.06968
3 -3.12665 29.1579 -2.57468
1 -3.33564 29.0211 0.1433
2 -2.25248 28.9765 0.152113
3 -3.18584 28.8695 11.8654
1 -4.04493 28.9858 10.3447
1 -5.43932 29.0431 10.3333
2 -5.99013 29.0156 11.2669
1 -6.12375 29.1359 9.12034
2 -7.2071 29.1805 9.11045
1 -5.41437 29.1712 7.91886
3 -6.27582 29.2876 6.39934
1 -4.01972 29.1138 7.93032
3 -3.12665 29.1579 6.42532
1 -3.33564 29.0211 9.1433
2 -2.25248 28.9765 9.15211
3 5.66403 20.2952 -5.83088
1 4.88218 20.2722 -7.39685
1 3.48915 20.275 -7.48172
2 2.89152 20.2914 -6.57703
1 2.86632 20.2566 -8.73072
2 1.78408 20.2587 -8.79765
1 3.63594 20.2354 -9.89487
3 2.85167 20.2124 -11.4598
1 5.02923 20.2327 -9.80998
3 5.99776 20.2061 -11.268
1 5.6517 20.251 -8.56095
2 6.73382 20.2489 -8.4951
3 6.77261 19.1926 1.89479
1 5.70674 19.4709 0.53443
1 4.32319 19.4541 0.716744
2 3.90896 19.2685 1.70157
1 3.47382 19.676 -0.368408
2 2.39875 19.6631 -0.227724
1 4.00743 19.9148 -1.63578
3 2.93939 20.1929 -2.99467
1 5.39124 19.9317 -1.81813
3 6.0641 20.2309 -3.4063
1 6.24027 19.7097 -0.732878
2 7.31501 19.7228 -0.874579
3 7.39889 17.2768 10.544
1 6.33302 17.7188 9.22768
1 4.94946 17.6799 9.40658
2 4.53524 17.3757 10.3615
1 4.1001 18.0324 8.35657
2 3.02503 18.0025 8.49463
1 4.63371 18.4239 7.12775
3 3.56567 18.8655 5.81287
1 6.01752 18.4629 6.94881
3 6.69038 18.9534 5.40894
1 6.86655 18.1103 7.99892
2 7.94128 18.1405 7.85987