LAMMPS (19 Sep 2019)
OMP_NUM_THREADS environment is not set. Defaulting to 1 thread. (../comm.cpp:93)
  using 1 OpenMP thread(s) per MPI task
Reading data file ...
  orthogonal box = (-7.24978 -6.9703 -11.2527) to (7.86676 6.1851 11.5769)
  1 by 1 by 1 MPI processor grid
  reading atoms ...
  161 atoms
  read_data CPU = 0.0067197 secs
Replicating atoms ...
  orthogonal box = (-7.24978 -6.9703 -11.2527) to (38.0998 32.4959 57.2362)
  1 by 1 by 1 MPI processor grid
  4347 atoms
  replicate CPU = 0.0002547 secs
Reading potential file ffield.reax.FC with DATE: 2013-06-28
WARNING: Changed valency_val to valency_boc for X (../reaxc_ffield.cpp:315)
Neighbor list info ...
  update every 10 steps, delay 0 steps, check no
  max neighbors/atom: 2000, page size: 100000
  master list distance cutoff = 12
  ghost atom cutoff = 12
  binsize = 6, bins = 8 7 12
  2 neighbor lists, perpetual/occasional/extra = 2 0 0
  (1) pair reax/c, perpetual
      attributes: half, newton off, ghost
      pair build: half/bin/newtoff/ghost
      stencil: half/ghost/bin/3d/newtoff
      bin: standard
  (2) fix qeq/reax, perpetual, copy from (1)
      attributes: half, newton off, ghost
      pair build: copy
      stencil: none
      bin: none
Setting up Verlet run ...
  Unit style    : real
  Current step  : 0
  Time step     : 0.01
Per MPI rank memory allocation (min/avg/max) = 289.7 | 289.7 | 289.7 Mbytes
Step Time Temp PotEng KinEng TotEng Press Volume Density 
       0            0          300   -404720.66    3886.3801   -400834.28    100868.09    122579.92   0.83855551 
       1         0.01    299.97157   -404720.29    3886.0119   -400834.28    100869.88    122579.92    0.8385555 
       2         0.02     299.9535   -404720.06    3885.7778   -400834.28    100871.64    122579.92   0.83855547 
       3         0.03    299.94579   -404719.97    3885.6779   -400834.29    100873.39    122579.93   0.83855543 
       4         0.04    299.94839   -404720.27    3885.7115   -400834.55    100876.19    122579.94   0.83855537 
       5         0.05    299.96119   -404721.09    3885.8774   -400835.21    100880.79    122579.95   0.83855529 
       6         0.06    299.98418    -404721.8    3886.1752   -400835.63    100884.73    122579.96   0.83855519 
       7         0.07    300.01734    -404723.1    3886.6048   -400836.49    100890.27    122579.98   0.83855508 
       8         0.08    300.06066   -404724.23     3887.166   -400837.06    100894.99       122580   0.83855495 
       9         0.09    300.11414   -404725.69    3887.8588   -400837.83     100900.4    122580.02    0.8385548 
      10          0.1     300.1778    -404727.1    3888.6835   -400838.41     100905.3    122580.05   0.83855463 
      11         0.11    300.25165   -404728.68    3889.6402   -400839.04    100910.13    122580.07   0.83855445 
      12         0.12    300.33573   -404730.06    3890.7294   -400839.33    100913.72     122580.1   0.83855425 
      13         0.13    300.43006   -404731.73    3891.9514   -400839.78    100917.65    122580.13   0.83855403 
      14         0.14    300.53462   -404733.63     3893.306   -400840.32    100922.08    122580.17   0.83855379 
      15         0.15    300.64943   -404735.46    3894.7932   -400840.67    100925.79    122580.21   0.83855354 
      16         0.16    300.77447   -404737.54    3896.4131   -400841.12    100929.85    122580.25   0.83855327 
      17         0.17    300.90974    -404739.8    3898.1655   -400841.63       100934    122580.29   0.83855298 
      18         0.18    301.05525   -404741.94    3900.0505   -400841.89    100937.41    122580.33   0.83855267 
      19         0.19      301.211   -404744.38    3902.0681   -400842.31    100941.29    122580.38   0.83855235 
      20          0.2    301.37696   -404747.04    3904.2181   -400842.83    100945.41    122580.43   0.83855201 
      21         0.21    301.55313    -404749.6    3906.5003    -400843.1    100948.99    122580.48   0.83855165 
      22         0.22    301.73951    -404752.3    3908.9148   -400843.38    100952.38    122580.54   0.83855127 
      23         0.23    301.93608   -404755.32    3911.4612   -400843.86    100956.58     122580.6   0.83855088 
      24         0.24    302.14283   -404758.19    3914.1397   -400844.05    100959.76    122580.66   0.83855046 
      25         0.25    302.35979   -404761.14    3916.9503   -400844.19     100962.7    122580.72   0.83855004 
      26         0.26    302.58694   -404764.29     3919.893   -400844.39    100965.88    122580.78   0.83854959 
      27         0.27    302.82426   -404767.71    3922.9673   -400844.75    100969.63    122580.85   0.83854913 
      28         0.28    303.07173   -404771.22    3926.1732   -400845.05     100973.4    122580.92   0.83854864 
      29         0.29    303.32935   -404774.86    3929.5105   -400845.35    100977.14    122580.99   0.83854815 
      30          0.3     303.5971   -404778.69    3932.9792   -400845.71    100981.23    122581.07   0.83854763 
      31         0.31    303.87496   -404782.86    3936.5787   -400846.28    100986.08    122581.15   0.83854709 
      32         0.32     304.1629   -404786.87    3940.3088   -400846.56    100990.24    122581.23   0.83854654 
      33         0.33    304.46093   -404791.05    3944.1697   -400846.88    100994.57    122581.31   0.83854597 
      34         0.34    304.76902   -404795.41    3948.1609   -400847.25    100999.08     122581.4   0.83854539 
      35         0.35    305.08716   -404799.81    3952.2822   -400847.53    101003.36    122581.49   0.83854478 
      36         0.36    305.41534   -404804.34    3956.5337   -400847.81    101007.98    122581.58   0.83854416 
      37         0.37    305.75354   -404809.12    3960.9149    -400848.2    101013.04    122581.67   0.83854352 
      38         0.38    306.10174   -404813.97    3965.4258   -400848.54    101018.18    122581.77   0.83854287 
      39         0.39    306.45993   -404818.85     3970.066   -400848.78    101022.96    122581.87   0.83854219 
      40          0.4    306.82809   -404823.87    3974.8354   -400849.03       101028    122581.97    0.8385415 
      41         0.41     307.2062   -404829.13    3979.7336   -400849.39    101033.61    122582.07   0.83854079 
      42         0.42    307.59425   -404834.31    3984.7606   -400849.55    101038.78    122582.18   0.83854006 
      43         0.43    307.99219   -404839.83    3989.9157   -400849.91    101044.62    122582.28   0.83853932 
      44         0.44    308.39997   -404845.45    3995.1984   -400850.25    101051.12     122582.4   0.83853856 
      45         0.45    308.81758   -404851.13    4000.6084   -400850.52    101057.23    122582.51   0.83853778 
      46         0.46    309.24502   -404857.03    4006.1456   -400850.88    101063.75    122582.63   0.83853698 
      47         0.47    309.68223   -404863.01    4011.8096    -400851.2    101070.36    122582.75   0.83853617 
      48         0.48    310.12923   -404869.08    4017.6003   -400851.48     101077.7    122582.87   0.83853533 
      49         0.49    310.58597   -404875.56    4023.5172   -400852.04     101085.7    122582.99   0.83853448 
      50          0.5    311.05242   -404881.98    4029.5598   -400852.42    101093.62    122583.12   0.83853362 
      51         0.51    311.52855   -404888.48    4035.7279   -400852.75    101101.57    122583.25   0.83853273 
      52         0.52    312.01433   -404895.35    4042.0209   -400853.33    101110.57    122583.38   0.83853183 
      53         0.53    312.50971   -404902.16    4048.4385   -400853.72    101119.56    122583.51   0.83853091 
      54         0.54    313.01472   -404908.95    4054.9806   -400853.97    101128.58    122583.65   0.83852997 
      55         0.55    313.52932   -404915.88     4061.647   -400854.23    101137.99    122583.79   0.83852902 
      56         0.56    314.05349   -404922.97    4068.4375   -400854.54     101147.8    122583.93   0.83852805 
      57         0.57    314.58719   -404930.24    4075.3514   -400854.89     101158.2    122584.08   0.83852706 
      58         0.58    315.13038    -404937.7    4082.3882   -400855.31    101169.27    122584.22   0.83852605 
      59         0.59    315.68303   -404945.18    4089.5476   -400855.63    101180.56    122584.37   0.83852502 
      60          0.6    316.24511   -404952.87    4096.8291   -400856.05    101192.62    122584.53   0.83852398 
      61         0.61     316.8166   -404960.51    4104.2324   -400856.27     101204.6    122584.68   0.83852292 
      62         0.62    317.39743   -404968.54    4111.7569   -400856.78    101217.49    122584.84   0.83852184 
      63         0.63    317.98759   -404976.47    4119.4021   -400857.07    101230.58       122585   0.83852075 
      64         0.64    318.58704   -404984.57    4127.1678    -400857.4    101244.26    122585.16   0.83851964 
      65         0.65    319.19574   -404992.79    4135.0533   -400857.74    101258.59    122585.33   0.83851851 
      66         0.66    319.81368   -405001.14    4143.0585   -400858.08    101273.42     122585.5   0.83851736 
      67         0.67    320.44077   -405009.92    4151.1821   -400858.74    101290.09    122585.67   0.83851619 
      68         0.68    321.07694   -405018.74    4159.4235   -400859.32     101307.3    122585.84   0.83851501 
      69         0.69    321.72219    -405027.5    4167.7824   -400859.72    101324.35    122586.01   0.83851381 
      70          0.7    322.37649   -405036.33    4176.2587   -400860.07    101341.82    122586.19   0.83851259 
      71         0.71    323.03982   -405045.38    4184.8517   -400860.53    101360.16    122586.37   0.83851135 
      72         0.72     323.7121   -405054.55     4193.561   -400860.99    101379.36    122586.56    0.8385101 
      73         0.73     324.3933   -405063.93    4202.3856   -400861.55    101399.33    122586.74   0.83850883 
      74         0.74    325.08338    -405073.2    4211.3253   -400861.88    101419.68    122586.93   0.83850754 
      75         0.75     325.7823   -405082.68    4220.3796    -400862.3    101440.72    122587.12   0.83850624 
      76         0.76    326.49002   -405092.33    4229.5477   -400862.78    101462.86    122587.31   0.83850491 
      77         0.77    327.20649   -405101.99    4238.8294   -400863.16    101485.62    122587.51   0.83850357 
      78         0.78    327.93168   -405111.78     4248.224   -400863.56    101509.24    122587.71   0.83850221 
      79         0.79    328.66555   -405121.69    4257.7309   -400863.96    101533.72    122587.91   0.83850084 
      80          0.8    329.40806   -405131.61    4267.3498   -400864.26    101558.71    122588.11   0.83849944 
      81         0.81    330.15916   -405141.74      4277.08   -400864.66    101584.77    122588.32   0.83849803 
      82         0.82    330.91881   -405151.89    4286.9209   -400864.97    101611.58    122588.53    0.8384966 
      83         0.83    331.68693   -405162.44    4296.8717   -400865.57    101639.89    122588.74   0.83849515 
      84         0.84    332.46346      -405173    4306.9312   -400866.07    101668.57    122588.96   0.83849369 
      85         0.85    333.24833   -405183.67     4317.099   -400866.58    101698.14    122589.17   0.83849221 
      86         0.86    334.04153   -405194.37    4327.3746      -400867    101728.71    122589.39   0.83849071 
      87         0.87      334.843   -405205.27    4337.7573   -400867.51    101760.06    122589.61   0.83848919 
      88         0.88    335.65268   -405216.23    4348.2463   -400867.98     101792.6    122589.84   0.83848765 
      89         0.89    336.47053   -405227.21    4358.8413   -400868.37    101826.35    122590.07    0.8384861 
      90          0.9    337.29651   -405238.39    4369.5416   -400868.85     101860.9    122590.29   0.83848453 
      91         0.91    338.13054   -405249.91     4380.346   -400869.57     101896.6    122590.53   0.83848294 
      92         0.92    338.97255   -405261.31     4391.254   -400870.06    101933.29    122590.76   0.83848134 
      93         0.93    339.82253   -405272.77    4402.2651    -400870.5     101970.8       122591   0.83847971 
      94         0.94    340.68043   -405284.33    4413.3788   -400870.95    102009.31    122591.24   0.83847807 
      95         0.95    341.54617   -405296.09    4424.5942    -400871.5     102049.1    122591.48   0.83847641 
      96         0.96    342.41971   -405307.88    4435.9105   -400871.96    102089.94    122591.73   0.83847474 
      97         0.97    343.30102   -405319.66    4447.3275   -400872.33    102130.93    122591.97   0.83847304 
      98         0.98    344.19002   -405331.73    4458.8442   -400872.88    102174.45    122592.22   0.83847133 
      99         0.99    345.08666   -405343.72    4470.4598   -400873.26     102218.4    122592.48    0.8384696 
     100            1    345.99089   -405355.89    4482.1738   -400873.72    102263.05    122592.73   0.83846785 
     101         1.01    346.90266   -405368.13    4493.9854   -400874.15     102309.2    122592.99   0.83846609 
     102         1.02     347.8219   -405380.62    4505.8938   -400874.73    102356.48    122593.25    0.8384643 
     103         1.03    348.74855   -405393.11    4517.8981   -400875.21    102404.01    122593.52    0.8384625 
     104         1.04    349.68254   -405405.79    4529.9976   -400875.79    102453.41    122593.78   0.83846068 
     105         1.05    350.62385   -405418.53    4542.1918   -400876.34    102505.12    122594.05   0.83845885 
     106         1.06    351.57242   -405431.27    4554.4803   -400876.79    102556.96    122594.32   0.83845699 
     107         1.07    352.52819   -405444.15    4566.8618   -400877.29    102610.35    122594.59   0.83845512 
     108         1.08    353.49109   -405457.08    4579.3359   -400877.75    102664.36    122594.87   0.83845323 
     109         1.09    354.46109   -405470.11    4591.9017   -400878.21    102719.47    122595.15   0.83845132 
     110          1.1     355.4381   -405483.38    4604.5586   -400878.82    102775.86    122595.43    0.8384494 
     111         1.11    356.42208    -405496.6    4617.3056   -400879.29    102833.08    122595.72   0.83844746 
     112         1.12    357.41296   -405510.05     4630.142   -400879.91    102890.93       122596   0.83844549 
     113         1.13    358.41066   -405523.56     4643.067   -400880.49    102950.67    122596.29   0.83844352 
     114         1.14    359.41515   -405537.06    4656.0797   -400880.98    103011.42    122596.58   0.83844152 
     115         1.15    360.42636   -405550.77    4669.1795   -400881.59    103073.85    122596.88    0.8384395 
     116         1.16    361.44421   -405564.59    4682.3653   -400882.23    103136.66    122597.18   0.83843747 
     117         1.17    362.46864   -405578.46    4695.6365   -400882.82     103200.7    122597.48   0.83843542 
     118         1.18    363.49963    -405592.6    4708.9924   -400883.61    103266.31    122597.78   0.83843335 
     119         1.19    364.53709   -405606.71    4722.4323   -400884.28     103332.7    122598.08   0.83843127 
     120          1.2    365.58098   -405620.84    4735.9555   -400884.89    103400.03    122598.39   0.83842916 
     121         1.21    366.63125   -405635.06    4749.5613    -400885.5    103468.27     122598.7   0.83842704 
     122         1.22    367.68782   -405649.44    4763.2488   -400886.19     103537.9    122599.01    0.8384249 
     123         1.23    368.75063   -405663.94     4777.017   -400886.92    103608.48    122599.33   0.83842274 
     124         1.24    369.81961   -405678.49    4790.8653   -400887.62    103679.84    122599.65   0.83842057 
     125         1.25    370.89473   -405693.04    4804.7931   -400888.25    103751.68    122599.97   0.83841837 
     126         1.26    371.97596   -405707.54       4818.8   -400888.74    103824.46    122600.29   0.83841616 
     127         1.27    373.06324    -405722.3    4832.8852   -400889.42    103897.47    122600.62   0.83841393 
     128         1.28     374.1565   -405737.04     4847.048   -400889.99    103972.71    122600.95   0.83841168 
     129         1.29     375.2557   -405751.88    4861.2877   -400890.59    104048.13    122601.28   0.83840942 
     130          1.3    376.36078   -405766.88    4875.6035   -400891.28    104124.35    122601.61   0.83840713 
     131         1.31    377.47168   -405781.97    4889.9948   -400891.98    104202.11    122601.95   0.83840483 
     132         1.32    378.58836   -405797.05     4904.461   -400892.59    104280.08    122602.29   0.83840251 
     133         1.33    379.71075   -405812.37     4919.001   -400893.37    104358.64    122602.63   0.83840017 
     134         1.34    380.83877   -405827.69    4933.6141   -400894.08    104437.83    122602.97   0.83839782 
     135         1.35    381.97238      -405843    4948.2996    -400894.7    104517.83    122603.32   0.83839544 
     136         1.36    383.11154   -405858.36     4963.057   -400895.31    104598.19    122603.67   0.83839305 
     137         1.37     384.2562   -405873.87    4977.8855   -400895.98    104679.98    122604.02   0.83839064 
     138         1.38    385.40631    -405889.4    4992.7848   -400896.62    104762.38    122604.38   0.83838821 
     139         1.39    386.56183   -405905.06     5007.754   -400897.31    104845.11    122604.74   0.83838577 
     140          1.4    387.72267   -405920.84    5022.7923   -400898.05    104928.12     122605.1    0.8383833 
     141         1.41    388.88877   -405936.91    5037.8987   -400899.01    105012.76    122605.46   0.83838082 
     142         1.42    390.06008    -405952.8    5053.0725   -400899.73    105096.76    122605.83   0.83837832 
     143         1.43    391.23657   -405968.65    5068.3135   -400900.34    105181.43    122606.19    0.8383758 
     144         1.44    392.41819   -405984.66    5083.6209   -400901.04    105267.11    122606.57   0.83837326 
     145         1.45     393.6049   -406000.79    5098.9943    -400901.8    105353.55    122606.94    0.8383707 
     146         1.46    394.79663   -406017.01    5114.4326   -400902.57    105439.56    122607.32   0.83836813 
     147         1.47    395.99332   -406033.14    5129.9353    -400903.2     105526.2     122607.7   0.83836553 
     148         1.48    397.19495   -406049.41    5145.5019   -400903.91    105613.27    122608.08   0.83836292 
     149         1.49    398.40146   -406065.71    5161.1318   -400904.58     105700.8    122608.46   0.83836029 
     150          1.5    399.61284   -406082.01    5176.8247   -400905.18    105789.05    122608.85   0.83835765 
     151         1.51    400.82903   -406098.41    5192.5799   -400905.83    105876.68    122609.24   0.83835498 
     152         1.52    402.04999   -406114.84     5208.397   -400906.44    105965.19    122609.63    0.8383523 
     153         1.53    403.27564   -406131.57    5224.2748   -400907.29     106053.5    122610.03   0.83834959 
     154         1.54     404.5059   -406148.31    5240.2123    -400908.1    106142.16    122610.42   0.83834687 
     155         1.55    405.74075   -406165.07    5256.2093   -400908.87    106231.43    122610.83   0.83834413 
     156         1.56    406.98016   -406181.76    5272.2653   -400909.49       106320    122611.23   0.83834137 
     157         1.57    408.22409    -406198.5    5288.3799   -400910.12    106408.63    122611.63    0.8383386 
     158         1.58    409.47249   -406215.45    5304.5525    -400910.9    106497.47    122612.04    0.8383358 
     159         1.59    410.72531   -406232.42    5320.7823   -400911.63    106586.87    122612.45   0.83833299 
     160          1.6    411.98249   -406249.53    5337.0685   -400912.47    106676.15    122612.87   0.83833016 
     161         1.61    413.24397   -406266.62    5353.4106   -400913.21    106765.02    122613.29   0.83832731 
     162         1.62    414.50973   -406283.82    5369.8079   -400914.02    106854.95    122613.71   0.83832444 
     163         1.63    415.77971   -406301.02      5386.26   -400914.76    106944.79    122614.13   0.83832155 
     164         1.64    417.05387   -406318.19    5402.7663   -400915.42    107033.82    122614.55   0.83831864 
     165         1.65    418.33219   -406335.37    5419.3264   -400916.04    107122.81    122614.98   0.83831572 
     166         1.66    419.61461   -406352.73    5435.9396   -400916.79    107212.22    122615.41   0.83831278 
     167         1.67    420.90108   -406370.19    5452.6053   -400917.58    107301.01    122615.84   0.83830982 
     168         1.68    422.19153    -406387.8    5469.3226   -400918.48    107390.53    122616.28   0.83830684 
     169         1.69    423.48595   -406405.31    5486.0912   -400919.22    107479.42    122616.72   0.83830384 
     170          1.7    424.78427   -406422.98    5502.9105   -400920.07    107568.34    122617.16   0.83830082 
     171         1.71    426.08644   -406440.82    5519.7796   -400921.04    107657.68     122617.6   0.83829778 
     172         1.72    427.39245   -406458.52    5536.6985   -400921.83    107747.93    122618.05   0.83829473 
     173         1.73    428.70227   -406476.23    5553.6666   -400922.56    107836.98     122618.5   0.83829165 
     174         1.74    430.01586   -406494.06    5570.6836   -400923.37    107924.83    122618.95   0.83828856 
     175         1.75    431.33317   -406511.96    5587.7488   -400924.21    108013.05    122619.41   0.83828545 
     176         1.76    432.65415   -406529.97    5604.8616   -400925.11    108101.71    122619.87   0.83828232 
     177         1.77    433.97874   -406548.05    5622.0212   -400926.03     108190.5    122620.33   0.83827917 
     178         1.78    435.30695   -406566.09    5639.2276   -400926.86    108278.84    122620.79   0.83827601 
     179         1.79    436.63873   -406584.13    5656.4803   -400927.65    108365.95    122621.26   0.83827282 
     180          1.8    437.97403    -406602.3    5673.7786   -400928.52    108453.07    122621.72   0.83826962 
     181         1.81     439.3128   -406620.44    5691.1218   -400929.32    108540.37     122622.2   0.83826639 
     182         1.82    440.65503   -406638.72    5708.5098   -400930.21    108627.71    122622.67   0.83826315 
     183         1.83    442.00068   -406656.94    5725.9422      -400931    108715.48    122623.15   0.83825989 
     184         1.84    443.34972   -406675.27    5743.4185   -400931.85    108802.44    122623.63   0.83825661 
     185         1.85    444.70214   -406693.66    5760.9385   -400932.72    108889.73    122624.11   0.83825331 
     186         1.86    446.05788   -406712.04    5778.5016   -400933.54    108975.17    122624.59   0.83824999 
     187         1.87    447.41691   -406730.61    5796.1074    -400934.5    109062.76    122625.08   0.83824666 
     188         1.88    448.77919   -406749.15    5813.7551    -400935.4     109148.8    122625.57    0.8382433 
     189         1.89    450.14465   -406767.78    5831.4441   -400936.33    109234.79    122626.07   0.83823993 
     190          1.9     451.5133   -406786.35    5849.1744   -400937.18    109320.55    122626.56   0.83823653 
     191         1.91     452.8851   -406805.06    5866.9456   -400938.11    109405.73    122627.06   0.83823312 
     192         1.92       454.26   -406823.86    5884.7569   -400939.11    109490.38    122627.57   0.83822969 
     193         1.93    455.63796   -406842.63    5902.6077   -400940.02    109574.71    122628.07   0.83822624 
     194         1.94    457.01894   -406861.38    5920.4978   -400940.88    109659.12    122628.58   0.83822277 
     195         1.95    458.40293   -406880.13    5938.4269    -400941.7    109742.89    122629.09   0.83821928 
     196         1.96    459.78989   -406898.99    5956.3944   -400942.59    109825.34     122629.6   0.83821577 
     197         1.97    461.17976   -406917.93    5974.3996   -400943.53    109908.51    122630.12   0.83821225 
     198         1.98    462.57253   -406936.81    5992.4423   -400944.37    109992.03    122630.64    0.8382087 
     199         1.99    463.96817   -406955.78    6010.5223   -400945.26    110074.25    122631.16   0.83820514 
     200            2    465.36666   -406974.73    6028.6392   -400946.09    110157.01    122631.68   0.83820155 
     201         2.01    466.76794   -406993.72    6046.7922   -400946.92    110239.03    122632.21   0.83819795 
     202         2.02    468.17201   -407012.81    6064.9813   -400947.83    110321.48    122632.74   0.83819433 
     203         2.03    469.57882    -407031.9    6083.2061   -400948.69    110402.53    122633.27   0.83819069 
     204         2.04    470.98836   -407051.02    6101.4661   -400949.56     110483.3    122633.81   0.83818703 
     205         2.05    472.40059   -407070.19     6119.761   -400950.43    110564.37    122634.34   0.83818335 
     206         2.06    473.81547   -407089.51    6138.0901   -400951.42    110643.42    122634.89   0.83817965 
     207         2.07    475.23294   -407108.85    6156.4529    -400952.4    110722.73    122635.43   0.83817594 
     208         2.08      476.653   -407128.23    6174.8492   -400953.39       110802    122635.98    0.8381722 
     209         2.09    478.07562   -407147.72    6193.2786   -400954.44     110881.3    122636.53   0.83816844 
     210          2.1    479.50077   -407167.13    6211.7409   -400955.39    110960.11    122637.08   0.83816467 
     211         2.11    480.92842   -407186.58    6230.2355   -400956.34    111038.05    122637.63   0.83816087 
     212         2.12    482.35853   -407205.92     6248.762   -400957.16    111115.51    122638.19   0.83815706 
     213         2.13    483.79105   -407225.45    6267.3197   -400958.13    111192.97    122638.75   0.83815323 
     214         2.14    485.22594   -407245.05    6285.9082   -400959.14    111269.61    122639.32   0.83814938 
     215         2.15     486.6632   -407264.65    6304.5273   -400960.12    111345.66    122639.88    0.8381455 
     216         2.16    488.10279   -407284.13    6323.1766   -400960.95    111420.87    122640.45   0.83814161 
     217         2.17    489.54468   -407303.81    6341.8558   -400961.95    111495.92    122641.02    0.8381377 
     218         2.18    490.98885   -407323.54    6360.5644   -400962.98    111571.39     122641.6   0.83813377 
     219         2.19    492.43523   -407343.36    6379.3017   -400964.05    111646.32    122642.18   0.83812983 
     220          2.2    493.88382   -407363.07    6398.0675   -400965.01    111719.85    122642.76   0.83812586 
     221         2.21     495.3346   -407382.87    6416.8619   -400966.01    111793.25    122643.34   0.83812187 
     222         2.22    496.78755    -407402.8    6435.6842   -400967.11    111866.05    122643.93   0.83811786 
     223         2.23    498.24263   -407422.62    6454.5342   -400968.08    111938.01    122644.52   0.83811384 
     224         2.24    499.69982   -407442.54    6473.4115   -400969.13    112009.85    122645.11   0.83810979 
     225         2.25    501.15905   -407462.58    6492.3153   -400970.26    112080.13     122645.7   0.83810573 
     226         2.26    502.62033   -407482.49    6511.2455   -400971.25    112150.08     122646.3   0.83810164 
     227         2.27    504.08364   -407502.48    6530.2022   -400972.28    112220.26     122646.9   0.83809754 
     228         2.28    505.54897    -407522.5     6549.185   -400973.32    112289.48     122647.5   0.83809342 
     229         2.29     507.0163    -407542.6    6568.1936   -400974.41    112358.28    122648.11   0.83808928 
     230          2.3    508.48557   -407562.72    6587.2275   -400975.49    112425.91    122648.72   0.83808511 
     231         2.31    509.95674   -407582.85    6606.2858   -400976.57    112492.28    122649.33   0.83808093 
     232         2.32    511.42977   -407603.05    6625.3684   -400977.68    112558.57    122649.95   0.83807673 
     233         2.33    512.90467   -407623.13    6644.4751   -400978.66    112624.44    122650.56   0.83807251 
     234         2.34    514.38139   -407643.45    6663.6054   -400979.84    112689.48    122651.18   0.83806827 
     235         2.35     515.8599   -407663.73    6682.7589   -400980.97    112753.74    122651.81   0.83806401 
     236         2.36    517.34019   -407684.09    6701.9355   -400982.15    112817.56    122652.43   0.83805973 
     237         2.37    518.82223   -407704.43    6721.1347    -400983.3    112880.35    122653.06   0.83805543 
     238         2.38      520.306   -407724.84    6740.3563   -400984.49     112941.9    122653.69   0.83805112 
     239         2.39    521.79147   -407745.28       6759.6   -400985.68    113003.05    122654.33   0.83804678 
     240          2.4    523.27862   -407765.69    6778.8655   -400986.83    113063.57    122654.97   0.83804242 
     241         2.41    524.76745   -407786.15    6798.1526   -400987.99    113124.35    122655.61   0.83803804 
     242         2.42     526.2579   -407806.53    6817.4608   -400989.06    113183.63    122656.25   0.83803365 
     243         2.43    527.74996   -407826.98    6836.7899   -400990.19    113242.82     122656.9   0.83802923 
     244         2.44    529.24363   -407847.41    6856.1397   -400991.27    113300.58    122657.55    0.8380248 
     245         2.45    530.73887   -407867.77      6875.51   -400992.26    113357.75     122658.2   0.83802034 
     246         2.46    532.23568   -407888.31    6894.9005   -400993.41    113414.59    122658.85   0.83801587 
     247         2.47    533.73402   -407908.77     6914.311   -400994.46    113470.33    122659.51   0.83801137 
     248         2.48     535.2339    -407929.3    6933.7414   -400995.56    113525.71    122660.17   0.83800686 
     249         2.49     536.7353   -407949.91    6953.1914   -400996.71    113579.93    122660.84   0.83800232 
     250          2.5    538.23818   -407970.55    6972.6605   -400997.89    113633.52     122661.5   0.83799777 
     251         2.51     539.7425   -407991.27    6992.1484   -400999.12    113687.12    122662.17    0.8379932 
     252         2.52    541.24824   -408011.89    7011.6547   -401000.24     113739.2    122662.84   0.83798861 
     253         2.53    542.75536   -408032.61    7031.1788   -401001.43    113790.55    122663.52   0.83798399 
     254         2.54    544.26388   -408053.29    7050.7212   -401002.57    113841.89     122664.2   0.83797936 
     255         2.55    545.77379   -408073.94    7070.2814   -401003.66    113892.11    122664.88   0.83797471 
     256         2.56    547.28506   -408094.67    7089.8593   -401004.81    113941.62    122665.56   0.83797004 
     257         2.57    548.79767   -408115.57    7109.4545   -401006.12    113990.69    122666.25   0.83796535 
     258         2.58    550.31159    -408136.2    7129.0668   -401007.13    114038.48    122666.94   0.83796063 
     259         2.59    551.82684   -408157.08    7148.6962   -401008.38    114086.56    122667.63    0.8379559 
     260          2.6    553.34341    -408177.9    7168.3428   -401009.56    114133.77    122668.33   0.83795115 
     261         2.61    554.86129   -408198.74    7188.0064   -401010.73    114180.33    122669.02   0.83794638 
     262         2.62    556.38048    -408219.5    7207.6868   -401011.82    114226.27    122669.73   0.83794159 
     263         2.63    557.90094    -408240.5    7227.3838   -401013.12    114271.43    122670.43   0.83793678 
     264         2.64    559.42265   -408261.49     7247.097    -401014.4    114316.09    122671.14   0.83793195 
     265         2.65    560.94562   -408282.42    7266.8264   -401015.59    114360.14    122671.85    0.8379271 
     266         2.66    562.46984   -408303.37    7286.5721   -401016.79    114403.59    122672.56   0.83792224 
     267         2.67    563.99529   -408324.36    7306.3337   -401018.02    114447.03    122673.28   0.83791735 
     268         2.68    565.52196   -408345.39     7326.111   -401019.28    114489.09    122673.99   0.83791244 
     269         2.69    567.04984    -408366.4    7345.9041    -401020.5     114530.4    122674.72   0.83790751 
     270          2.7    568.57892   -408387.51    7365.7127    -401021.8    114571.03    122675.44   0.83790256 
     271         2.71    570.10918   -408408.56    7385.5366   -401023.02    114611.96    122676.17   0.83789759 
     272         2.72    571.64062   -408429.63    7405.3759   -401024.26     114651.6     122676.9    0.8378926 
     273         2.73    573.17325   -408450.77    7425.2305   -401025.54    114690.83    122677.63    0.8378876 
     274         2.74    574.70706   -408471.88    7445.1003   -401026.78    114729.49    122678.37   0.83788257 
     275         2.75    576.24203   -408493.07    7464.9853   -401028.09    114767.62    122679.11   0.83787752 
     276         2.76    577.77818   -408514.23    7484.8855   -401029.34     114805.8    122679.85   0.83787245 
     277         2.77    579.31549   -408535.41    7504.8008   -401030.61    114842.17    122680.59   0.83786737 
     278         2.78    580.85395   -408556.65    7524.7309   -401031.92    114878.19    122681.34   0.83786226 
     279         2.79    582.39355   -408577.87    7544.6758   -401033.19    114913.44    122682.09   0.83785713 
     280          2.8     583.9343   -408599.11    7564.6355   -401034.47    114948.05    122682.85   0.83785198 
     281         2.81    585.47617    -408620.4    7584.6099   -401035.79     114983.1     122683.6   0.83784682 
     282         2.82    587.01915   -408641.74    7604.5986   -401037.14    115017.11    122684.36   0.83784163 
     283         2.83    588.56325   -408663.03    7624.6017   -401038.43    115049.69    122685.12   0.83783642 
     284         2.84    590.10844   -408684.48    7644.6191   -401039.86    115081.47    122685.89    0.8378312 
     285         2.85    591.65473   -408705.81    7664.6507   -401041.16    115112.94    122686.66   0.83782595 
     286         2.86    593.20212   -408727.22    7684.6965   -401042.52    115143.46    122687.43   0.83782069 
     287         2.87    594.75061   -408748.59    7704.7566   -401043.83    115173.31     122688.2    0.8378154 
     288         2.88    596.30021   -408770.03     7724.831    -401045.2    115202.33    122688.98   0.83781009 
     289         2.89    597.85089   -408791.54    7744.9194   -401046.62    115230.61    122689.76   0.83780477 
     290          2.9    599.40265   -408813.07    7765.0218   -401048.04     115258.2    122690.54   0.83779942 
     291         2.91    600.95549   -408834.52    7785.1382   -401049.38    115285.13    122691.33   0.83779405 
     292         2.92    602.50939    -408856.1    7805.2685   -401050.83    115311.29    122692.12   0.83778867 
     293         2.93    604.06434   -408877.75    7825.4122   -401052.34    115337.06    122692.91   0.83778326 
     294         2.94    605.62034   -408899.26    7845.5696   -401053.69    115361.76     122693.7   0.83777784 
     295         2.95    607.17741   -408920.79    7865.7408   -401055.05    115385.76     122694.5   0.83777239 
     296         2.96    608.73553   -408942.45    7885.9256   -401056.52    115408.97     122695.3   0.83776693 
     297         2.97    610.29469   -408964.02    7906.1238    -401057.9    115431.61    122696.11   0.83776144 
     298         2.98    611.85489   -408985.61    7926.3357   -401059.28    115453.12    122696.91   0.83775593 
     299         2.99    613.41615   -409007.22    7946.5611   -401060.66    115473.71    122697.72   0.83775041 
     300            3    614.97844    -409028.9       7966.8    -401062.1    115493.55    122698.53   0.83774486 
     301         3.01    616.54177   -409050.55    7987.0523    -401063.5    115511.87    122699.35    0.8377393 
     302         3.02    618.10615   -409072.12    8007.3182    -401064.8    115530.22    122700.17   0.83773371 
     303         3.03    619.67157    -409093.8    8027.5976   -401066.21    115546.66    122700.99   0.83772811 
     304         3.04      621.238   -409115.57    8047.8901   -401067.68    115563.09    122701.81   0.83772248 
     305         3.05    622.80544    -409137.3    8068.1957   -401069.11    115578.83    122702.64   0.83771684 
     306         3.06    624.37391   -409159.09    8088.5146   -401070.58    115594.04    122703.47   0.83771117 
     307         3.07     625.9434   -409180.96    8108.8467   -401072.12    115608.24     122704.3   0.83770549 
     308         3.08    627.51391   -409202.74     8129.192   -401073.54    115621.32    122705.14   0.83769978 
     309         3.09    629.08546   -409224.48    8149.5508   -401074.93    115633.72    122705.98   0.83769405 
     310          3.1    630.65803   -409246.29    8169.9228   -401076.37     115644.8    122706.82   0.83768831 
     311         3.11    632.23162   -409268.13    8190.3081   -401077.82    115655.22    122707.66   0.83768254 
     312         3.12    633.80625   -409289.98    8210.7068   -401079.27       115665    122708.51   0.83767676 
     313         3.13    635.38192   -409311.84    8231.1189   -401080.73    115673.87    122709.36   0.83767095 
     314         3.14    636.95861   -409333.87    8251.5443   -401082.32    115682.28    122710.21   0.83766513 
     315         3.15    638.53632   -409355.77     8271.983   -401083.79    115689.79    122711.07   0.83765928 
     316         3.16    640.11507   -409377.69     8292.435   -401085.25    115696.44    122711.93   0.83765342 
     317         3.17    641.69485   -409399.63    8312.9004   -401086.73    115702.73    122712.79   0.83764753 
     318         3.18    643.27567   -409421.73    8333.3793   -401088.35    115708.05    122713.66   0.83764163 
     319         3.19    644.85752   -409443.76    8353.8715   -401089.88    115712.22    122714.52    0.8376357 
     320          3.2    646.44041   -409465.86    8374.3772   -401091.48    115716.16    122715.39   0.83762976 
     321         3.21    648.02433   -409487.88    8394.8962   -401092.98    115718.46    122716.27   0.83762379 
     322         3.22    649.60929   -409509.92    8415.4288   -401094.49    115719.96    122717.14   0.83761781 
     323         3.23    651.19529   -409532.07    8435.9748    -401096.1    115720.93    122718.02    0.8376118 
     324         3.24    652.78233   -409554.15    8456.5343   -401097.61    115720.76    122718.91   0.83760578 
     325         3.25    654.37041   -409576.31    8477.1072    -401099.2    115719.76    122719.79   0.83759973 
     326         3.26    655.95952   -409598.42    8497.6935   -401100.73    115717.95    122720.68   0.83759367 
     327         3.27    657.54967   -409620.62    8518.2933   -401102.32     115715.2    122721.57   0.83758758 
     328         3.28    659.14086   -409642.72    8538.9065   -401103.82    115712.12    122722.47   0.83758148 
     329         3.29    660.73309   -409664.89    8559.5333   -401105.36    115708.33    122723.37   0.83757535 
     330          3.3    662.32639   -409687.08    8580.1738   -401106.91    115703.65    122724.27   0.83756921 
     331         3.31    663.92076   -409709.24    8600.8282   -401108.41    115698.79    122725.17   0.83756304 
     332         3.32    665.51619   -409731.57    8621.4964   -401110.07    115693.08    122726.08   0.83755686 
     333         3.33     667.1127   -409753.72    8642.1785   -401111.54    115686.44    122726.98   0.83755065 
     334         3.34    668.71026   -409776.02    8662.8743   -401113.15    115679.16     122727.9   0.83754443 
     335         3.35    670.30889    -409798.3    8683.5838   -401114.72    115671.08    122728.81   0.83753818 
     336         3.36    671.90858    -409820.6    8704.3073   -401116.29    115662.53    122729.73   0.83753192 
     337         3.37    673.50936   -409842.85    8725.0446   -401117.81    115653.13    122730.65   0.83752563 
     338         3.38     675.1112    -409865.1    8745.7959   -401119.31     115642.9    122731.57   0.83751933 
     339         3.39    676.71412   -409887.52     8766.561   -401120.96    115632.14     122732.5     0.837513 
     340          3.4    678.31811   -409909.94      8787.34    -401122.6    115620.47    122733.43   0.83750666 
     341         3.41    679.92316   -409932.32    8808.1329   -401124.19    115608.31    122734.36   0.83750029 
     342         3.42     681.5293   -409954.74    8828.9398    -401125.8    115595.97     122735.3   0.83749391 
     343         3.43    683.13653   -409977.22    8849.7608   -401127.46    115581.61    122736.24    0.8374875 
     344         3.44    684.74483   -409999.68    8870.5957   -401129.08    115567.29    122737.18   0.83748108 
     345         3.45    686.35421   -410022.06    8891.4445   -401130.62    115552.44    122738.12   0.83747463 
     346         3.46    687.96466   -410044.42    8912.3073   -401132.11    115537.04    122739.07   0.83746817 
     347         3.47     689.5762   -410066.86    8933.1842   -401133.68    115520.46    122740.02   0.83746168 
     348         3.48    691.18881   -410089.53    8954.0749   -401135.46    115503.82    122740.98   0.83745518 
     349         3.49     692.8025   -410112.05    8974.9796   -401137.07    115486.43    122741.93   0.83744866 
     350          3.5    694.41727   -410134.61    8995.8982   -401138.72    115468.79    122742.89   0.83744211 
     351         3.51    696.03311   -410157.25    9016.8308   -401140.42    115450.24    122743.85   0.83743555 
     352         3.52    697.65001   -410179.81    9037.7771   -401142.03       115431    122744.82   0.83742896 
     353         3.53    699.26797   -410202.55    9058.7372   -401143.82    115411.44    122745.79   0.83742236 
     354         3.54    700.88699   -410225.19     9079.711   -401145.48    115391.35    122746.76   0.83741574 
     355         3.55    702.50709   -410247.91    9100.6986   -401147.21    115370.69    122747.73   0.83740909 
     356         3.56    704.12825   -410270.67    9121.7002   -401148.97    115349.49    122748.71   0.83740243 
     357         3.57    705.75049   -410293.37    9142.7156   -401150.65    115327.61    122749.69   0.83739575 
     358         3.58     707.3738   -410316.04     9163.745   -401152.29    115304.95    122750.67   0.83738904 
     359         3.59    708.99819   -410338.73    9184.7883   -401153.94    115282.06    122751.66   0.83738232 
     360          3.6    710.62364   -410361.45    9205.8453   -401155.61    115258.67    122752.64   0.83737558 
     361         3.61    712.25012   -410384.22    9226.9158   -401157.31    115234.68    122753.64   0.83736881 
     362         3.62    713.87766   -410406.96    9247.9999   -401158.96    115210.35    122754.63   0.83736203 
     363         3.63    715.50624   -410429.73    9269.0975   -401160.63    115185.55    122755.63   0.83735523 
     364         3.64    717.13587   -410452.63    9290.2087   -401162.42    115159.38    122756.63    0.8373484 
     365         3.65    718.76654   -410475.39    9311.3333   -401164.05    115133.32    122757.63   0.83734156 
     366         3.66    720.39824    -410498.2    9332.4714   -401165.73    115106.73    122758.64    0.8373347 
     367         3.67    722.03099   -410521.14     9353.623   -401167.51    115079.73    122759.65   0.83732782 
     368         3.68    723.66477   -410543.99     9374.788    -401169.2    115052.31    122760.66   0.83732092 
     369         3.69    725.29958   -410566.91    9395.9663   -401170.94    115024.17    122761.67   0.83731399 
     370          3.7    726.93541   -410589.71    9417.1578   -401172.56    114995.65    122762.69   0.83730705 
     371         3.71    728.57225   -410612.62    9438.3624   -401174.26    114966.62    122763.71   0.83730009 
     372         3.72     730.2101   -410635.61    9459.5801   -401176.03    114937.38    122764.73   0.83729311 
     373         3.73    731.84896   -410658.55    9480.8108   -401177.74    114908.16    122765.76   0.83728611 
     374         3.74     733.4888   -410681.56    9502.0544    -401179.5    114878.47    122766.79   0.83727909 
     375         3.75    735.12963   -410704.46    9523.3106   -401181.15    114848.13    122767.82   0.83727205 
     376         3.76    736.77143   -410727.51    9544.5796   -401182.93     114817.5    122768.86   0.83726499 
     377         3.77    738.41422   -410750.41    9565.8612   -401184.55     114785.9     122769.9   0.83725791 
     378         3.78    740.05796   -410773.36    9587.1552    -401186.2    114754.92    122770.94   0.83725081 
     379         3.79    741.70266   -410796.41    9608.4616   -401187.95    114724.01    122771.98   0.83724369 
     380          3.8    743.34833   -410819.48    9629.7806   -401189.69    114691.52    122773.03   0.83723655 
     381         3.81    744.99495   -410842.69     9651.112   -401191.58    114658.84    122774.08   0.83722939 
     382         3.82    746.64254   -410865.79    9672.4558   -401193.33    114625.96    122775.13   0.83722221 
     383         3.83    748.29104   -410888.96    9693.8115   -401195.15    114591.73    122776.19   0.83721501 
     384         3.84    749.94047   -410912.14    9715.1791   -401196.96    114557.51    122777.24   0.83720779 
     385         3.85     751.5908   -410935.36    9736.5585    -401198.8    114522.64    122778.31   0.83720056 
     386         3.86    753.24203   -410958.57    9757.9496   -401200.62    114487.63    122779.37    0.8371933 
     387         3.87    754.89419   -410981.85    9779.3526    -401202.5    114452.26    122780.44   0.83718602 
     388         3.88    756.54724      -411005    9800.7673   -401204.24    114415.89    122781.51   0.83717872 
     389         3.89    758.20118   -411028.13    9822.1933   -401205.93    114379.38    122782.58   0.83717141 
     390          3.9      759.856   -411051.36     9843.631   -401207.73    114342.47    122783.66   0.83716407 
     391         3.91    761.51172   -411074.61      9865.08   -401209.53    114305.26    122784.74   0.83715671 
     392         3.92     763.1683   -411097.92    9886.5405   -401211.38    114267.41    122785.82   0.83714934 
     393         3.93    764.82575   -411121.34    9908.0121   -401213.33    114228.83     122786.9   0.83714194 
     394         3.94    766.48405   -411144.66    9929.4946   -401215.17    114189.41    122787.99   0.83713453 
     395         3.95    768.14317   -411168.05    9950.9879   -401217.06    114150.78    122789.08   0.83712709 
     396         3.96     769.8031   -411191.34    9972.4915   -401218.85     114111.5    122790.17   0.83711964 
     397         3.97    771.46382   -411214.82    9994.0056   -401220.81    114071.92    122791.27   0.83711216 
     398         3.98    773.12536   -411238.17     10015.53   -401222.64    114032.17    122792.37   0.83710467 
     399         3.99     774.7877   -411261.65    10037.065   -401224.59    113991.77    122793.47   0.83709716 
     400            4    776.45081   -411285.02     10058.61   -401226.41    113950.58    122794.58   0.83708962 
     401         4.01    778.11469   -411308.51    10080.165   -401228.35    113909.23    122795.68   0.83708207 
     402         4.02    779.77935   -411331.89     10101.73   -401230.16    113867.66     122796.8    0.8370745 
     403         4.03    781.44462   -411355.51    10123.303    -401232.2    113814.11    122797.91   0.83706691 
     404         4.04    783.11043   -411378.91    10144.883   -401234.02    113769.35    122799.03    0.8370593 
     405         4.05     784.7769   -411402.44    10166.471   -401235.97     113724.7    122800.14   0.83705167 
     406         4.06    786.44403   -411425.97    10188.068    -401237.9    113679.41    122801.27   0.83704402 
     407         4.07    788.11181   -411449.36    10209.674   -401239.69    113634.18    122802.39   0.83703635 
     408         4.08    789.78024   -411472.94    10231.287   -401241.65       113589    122803.52   0.83702866 
     409         4.09    791.44933   -411496.53     10252.91   -401243.62    113543.29    122804.65   0.83702095 
     410          4.1    793.11903   -411520.03     10274.54   -401245.49    113496.29    122805.79   0.83701322 
     411         4.11    794.78933   -411543.61    10296.178   -401247.43    113449.68    122806.92   0.83700547 
     412         4.12    796.46022   -411567.19    10317.824   -401249.37    113402.98    122808.06    0.8369977 
     413         4.13    798.13168   -411590.79    10339.477   -401251.32    113355.87     122809.2   0.83698992 
     414         4.14    799.80371   -411614.23    10361.138   -401253.09    113306.82    122810.35   0.83698211 
     415         4.15     801.4763   -411637.72    10382.805   -401254.91    113258.37     122811.5   0.83697429 
     416         4.16    803.14944   -411661.27     10404.48   -401256.79    113209.44    122812.65   0.83696644 
     417         4.17    804.82313   -411684.91    10426.162   -401258.74    113160.11     122813.8   0.83695858 
     418         4.18    806.49736   -411708.56    10447.851   -401260.71    113110.39    122814.96   0.83695069 
     419         4.19     808.1721   -411732.19    10469.547   -401262.64    113060.25    122816.12   0.83694279 
     420          4.2    809.84734   -411755.82    10491.249   -401264.57    113009.81    122817.28   0.83693487 
     421         4.21    811.52307   -411779.42    10512.957   -401266.46    112959.57    122818.45   0.83692692 
     422         4.22    813.19927   -411803.02    10534.672   -401268.35    112907.94    122819.62   0.83691896 
     423         4.23    814.87577   -411826.92     10556.39   -401270.53    112844.04    122820.79   0.83691098 
     424         4.24    816.55238   -411850.78     10578.11   -401272.67    112776.56    122821.96   0.83690298 
     425         4.25    818.22917   -411874.33    10599.832    -401274.5    112720.56    122823.14   0.83689496 
     426         4.26    819.90628   -411898.02    10621.558   -401276.46    112664.73    122824.32   0.83688692 
     427         4.27    821.58353   -411921.94    10643.286   -401278.66    112596.95     122825.5   0.83687886 
     428         4.28    823.26088   -411945.46    10665.016   -401280.45    112538.13    122826.69   0.83687079 
     429         4.29    824.93847   -411969.21    10686.748   -401282.46    112480.56    122827.88   0.83686269 
     430          4.3    826.61636   -411992.97    10708.485   -401284.49    112423.26    122829.07   0.83685457 
     431         4.31    828.29453   -412016.72    10730.225   -401286.49    112365.75    122830.26   0.83684644 
     432         4.32    829.97295   -412040.39    10751.968   -401288.43    112307.26    122831.46   0.83683828 
     433         4.33    831.65162   -412064.12    10773.714   -401290.41    112248.69    122832.66   0.83683011 
     434         4.34    833.33052   -412087.94    10795.464   -401292.48    112189.73    122833.86   0.83682191 
     435         4.35    835.00962   -412111.73    10817.216   -401294.52    112130.01    122835.07    0.8368137 
     436         4.36    836.68891   -412135.56    10838.971   -401296.59    112070.13    122836.27   0.83680547 
     437         4.37    838.36839   -412159.27    10860.728   -401298.54    112010.21    122837.48   0.83679722 
     438         4.38    840.04804   -412182.95    10882.487   -401300.46    111949.47     122838.7   0.83678895 
     439         4.39    841.72784   -412206.76    10904.248   -401302.51     111888.1    122839.92   0.83678066 
     440          4.4    843.40776   -412230.49    10926.011   -401304.48    111825.66    122841.14   0.83677235 
     441         4.41    845.08776   -412254.36    10947.774   -401306.59    111763.04    122842.36   0.83676402 
     442         4.42    846.76783    -412278.1    10969.539   -401308.57    111701.23    122843.58   0.83675568 
     443         4.43    848.44797   -412301.92    10991.304   -401310.61    111638.27    122844.81   0.83674731 
     444         4.44    850.12812   -412325.76     11013.07   -401312.69    111574.75    122846.04   0.83673893 
     445         4.45    851.80832   -412349.51    11034.836   -401314.67    111510.72    122847.28   0.83673052 
     446         4.46    853.48855   -412373.31    11056.603   -401316.71    111446.09    122848.51    0.8367221 
     447         4.47    855.16878   -412397.29     11078.37   -401318.92    111381.08    122849.75   0.83671366 
     448         4.48    856.84898   -412421.19    11100.136   -401321.06    111315.93    122850.99    0.8367052 
     449         4.49    858.52915   -412444.97    11121.902   -401323.07    111249.83    122852.24   0.83669672 
     450          4.5    860.20926   -412468.91    11143.667   -401325.24    111183.05    122853.49   0.83668822 
     451         4.51    861.88936   -412492.74    11165.432    -401327.3    111116.98    122854.74    0.8366797 
     452         4.52    863.56944   -412516.61    11187.197   -401329.41    111050.54    122855.99   0.83667116 
     453         4.53    865.24947   -412540.53    11208.961   -401331.57     110983.7    122857.25    0.8366626 
     454         4.54    866.92944   -412564.32    11230.725   -401333.59    110914.39    122858.51   0.83665403 
     455         4.55    868.60934   -412588.15    11252.487   -401335.67    110846.57    122859.77   0.83664543 
     456         4.56    870.28918   -412612.03    11274.249   -401337.78    110778.01    122861.03   0.83663682 
     457         4.57    871.96896   -412635.92    11296.009   -401339.91    110709.43     122862.3   0.83662819 
     458         4.58    873.64849   -412659.97    11317.767    -401342.2    110626.23    122863.57   0.83661954 
     459         4.59    875.32771   -412683.86    11339.521   -401344.34    110554.03    122864.85   0.83661087 
     460          4.6    877.00677   -412707.74    11361.272   -401346.47    110483.14    122866.12   0.83660218 
     461         4.61    878.68556   -412731.65     11383.02   -401348.63    110400.16     122867.4   0.83659347 
     462         4.62    880.36404   -412755.59    11404.764   -401350.82    110327.19    122868.68   0.83658474 
     463         4.63    882.04231   -412779.43    11426.506   -401352.92     110254.3    122869.97     0.836576 
     464         4.64    883.72036    -412803.3    11448.244   -401355.05    110180.52    122871.25   0.83656724 
     465         4.65    885.39819   -412827.08     11469.98    -401357.1    110106.58    122872.54   0.83655845 
     466         4.66     887.0758   -412850.78    11491.713   -401359.07    110031.91    122873.84   0.83654965 
     467         4.67    888.75313    -412874.7    11513.442   -401361.25    109957.62    122875.13   0.83654083 
     468         4.68     890.4302   -412898.54    11535.167   -401363.38    109882.73    122876.43   0.83653199 
     469         4.69    892.10686   -412922.49    11556.888    -401365.6    109794.36    122877.73   0.83652313 
     470          4.7    893.78312   -412946.39    11578.603   -401367.78    109717.51    122879.04   0.83651425 
     471         4.71     895.4591   -412970.23    11600.315   -401369.91     109640.2    122880.34   0.83650536 
     472         4.72    897.13467   -412994.37    11622.021   -401372.34    109548.16    122881.65   0.83649644 
     473         4.73    898.80964    -413018.3     11643.72   -401374.58    109450.69    122882.97   0.83648751 
     474         4.74    900.48415    -413042.1    11665.412   -401376.69    109369.53    122884.28   0.83647856 
     475         4.75    902.15832   -413066.04    11687.101   -401378.94    109289.58     122885.6   0.83646959 
     476         4.76    903.83213   -413089.87    11708.784   -401381.09    109208.63    122886.92    0.8364606 
     477         4.77    905.50561    -413113.7    11730.463   -401383.24       109128    122888.24   0.83645159 
     478         4.78    907.17857   -413137.78    11752.136   -401385.64    109029.47    122889.57   0.83644257 
     479         4.79      908.851   -413161.61    11773.802    -401387.8    108945.97     122890.9   0.83643352 
     480          4.8    910.52306   -413185.43    11795.462   -401389.96    108863.06    122892.23   0.83642446 
     481         4.81    912.19472   -413209.22    11817.118    -401392.1    108778.92    122893.56   0.83641538 
     482         4.82    913.86586   -413233.31    11838.767   -401394.54    108682.07     122894.9   0.83640628 
     483         4.83    915.53646   -413257.12    11860.409   -401396.71    108595.74    122896.24   0.83639716 
     484         4.84    917.20665   -413280.84    11882.046    -401398.8    108510.13    122897.58   0.83638802 
     485         4.85    918.87645   -413304.63    11903.677   -401400.95    108424.52    122898.93   0.83637886 
     486         4.86    920.54588   -413328.53    11925.304   -401403.22    108338.52    122900.28   0.83636969 
     487         4.87    922.21492   -413352.38    11946.926   -401405.46    108251.68    122901.63    0.8363605 
     488         4.88    923.88356   -413376.14    11968.542    -401407.6    108164.26    122902.98   0.83635128 
     489         4.89    925.55178   -413399.77    11990.154   -401409.62     108076.7    122904.34   0.83634205 
     490          4.9    927.21962   -413423.62     12011.76   -401411.86    107988.72     122905.7   0.83633281 
     491         4.91    928.88708   -413447.46    12033.361    -401414.1    107900.22    122907.06   0.83632354 
     492         4.92    930.55411   -413471.21    12054.957   -401416.26    107810.32    122908.42   0.83631426 
     493         4.93    932.22064    -413495.2    12076.546   -401418.65    107710.81    122909.79   0.83630495 
     494         4.94    933.88669   -413519.07    12098.129   -401420.95    107620.51    122911.16   0.83629563 
     495         4.95    935.55239   -413542.92    12119.707   -401423.21    107529.47    122912.53   0.83628629 
     496         4.96    937.21772   -413566.75    12141.281   -401425.47    107439.09    122913.91   0.83627693 
     497         4.97    938.88269   -413590.52     12162.85   -401427.67    107347.26    122915.29   0.83626756 
     498         4.98    940.54726    -413614.1    12184.414   -401429.69    107254.62    122916.67   0.83625816 
     499         4.99    942.21144   -413637.88    12205.973   -401431.91    107162.03    122918.05   0.83624875 
     500            5    943.87527   -413661.71    12227.527   -401434.18    107069.51    122919.44   0.83623932 
     501         5.01    945.53876   -413685.57    12249.077    -401436.5    106976.69    122920.83   0.83622987 
     502         5.02     947.2019   -413709.31    12270.622   -401438.69    106882.87    122922.22    0.8362204 
     503         5.03     948.8647   -413733.13    12292.163   -401440.96    106788.73    122923.61   0.83621092 
     504         5.04    950.52716    -413756.9      12313.7    -401443.2     106693.9    122925.01   0.83620141 
     505         5.05    952.18928   -413780.77    12335.232   -401445.54    106598.98    122926.41   0.83619189 
     506         5.06    953.85097   -413804.62    12356.758   -401447.86    106491.41    122927.81   0.83618235 
     507         5.07    955.51222   -413828.47    12378.279   -401450.19    106393.98    122929.22   0.83617279 
     508         5.08    957.17311   -413852.26    12399.795   -401452.47    106291.92    122930.62   0.83616322 
     509         5.09    958.83363   -413875.98    12421.307   -401454.68     106194.3    122932.03   0.83615362 
     510          5.1    960.49383   -413899.79    12442.814   -401456.98    106096.12    122933.45   0.83614401 
     511         5.11    962.15371    -413923.6    12464.317   -401459.28    105997.14    122934.86   0.83613438 
     512         5.12    963.81328   -413947.32    12485.816    -401461.5    105897.57    122936.28   0.83612473 
     513         5.13    965.47253   -413971.13    12507.311   -401463.82    105798.19     122937.7   0.83611507 
     514         5.14    967.13147    -413994.8    12528.802      -401466    105698.44    122939.13   0.83610538 
     515         5.15    968.79009   -414018.51    12550.289   -401468.22    105597.91    122940.55   0.83609568 
     516         5.16    970.44842   -414042.32    12571.772   -401470.54    105497.69    122941.98   0.83608596 
     517         5.17    972.10641   -414066.25     12593.25      -401473    105387.43    122943.41   0.83607622 
     518         5.18     973.7639   -414090.11    12614.722   -401475.39    105272.55    122944.85   0.83606647 
     519         5.19    975.42094    -414113.9    12636.189   -401477.71    105168.77    122946.29    0.8360567 
     520          5.2    977.07756   -414137.75    12657.649    -401480.1    105052.63    122947.73    0.8360469 
     521         5.21    978.73379   -414161.56    12679.105   -401482.46    104947.53    122949.17    0.8360371 
     522         5.22    980.38952   -414185.66    12700.554    -401485.1     104817.7    122950.61   0.83602727 
     523         5.23    982.04471   -414209.44    12721.997   -401487.44    104709.39    122952.06   0.83601743 
     524         5.24    983.69962   -414233.18    12743.436   -401489.74    104602.52    122953.51   0.83600756 
     525         5.25    985.35412   -414257.18    12764.869   -401492.32    104480.96    122954.96   0.83599768 
     526         5.26    987.00808   -414281.19    12786.295   -401494.89     104359.7    122956.42   0.83598779 
     527         5.27    988.66157   -414304.88    12807.716   -401497.16    104246.88    122957.88   0.83597787 
     528         5.28    990.31474   -414328.59    12829.132   -401499.46    104135.55    122959.34   0.83596794 
     529         5.29    991.96762   -414352.26    12850.544   -401501.72    104024.16     122960.8   0.83595799 
     530          5.3    993.62021   -414376.07    12871.953   -401504.12    103912.09    122962.27   0.83594802 
     531         5.31    995.27252   -414399.81    12893.358   -401506.45    103799.87    122963.74   0.83593804 
     532         5.32    996.92457   -414423.57    12914.759   -401508.81     103687.9    122965.21   0.83592803 
     533         5.33    998.57617   -414447.29    12936.155   -401511.13    103560.51    122966.68   0.83591801 
     534         5.34     1000.227   -414471.11    12957.541   -401513.57    103422.02    122968.16   0.83590797 
     535         5.35    1001.8772   -414494.75    12978.919   -401515.84    103302.74    122969.64   0.83589792 
     536         5.36    1003.5271   -414518.51    13000.293   -401518.21    103185.67    122971.12   0.83588785 
     537         5.37    1005.1767   -414542.21    13021.662   -401520.55     103068.2    122972.61   0.83587776 
     538         5.38    1006.8259   -414565.91    13043.027   -401522.88    102950.32    122974.09   0.83586765 
     539         5.39    1008.4748   -414589.47    13064.388   -401525.09    102831.73    122975.58   0.83585752 
     540          5.4    1010.1234   -414613.25    13085.745    -401527.5    102712.99    122977.07   0.83584738 
     541         5.41    1011.7718   -414636.96    13107.099   -401529.86    102593.95    122978.57   0.83583722 
     542         5.42    1013.4197   -414660.78    13128.448   -401532.33    102462.67    122980.07   0.83582705 
     543         5.43    1015.0672   -414684.47     13149.79   -401534.68    102332.01    122981.57   0.83581685 
     544         5.44    1016.7144   -414708.23    13171.129    -401537.1    102210.52    122983.07   0.83580664 
     545         5.45    1018.3612   -414731.87    13192.463   -401539.41    102087.62    122984.57   0.83579641 
     546         5.46    1020.0078   -414755.46    13213.793   -401541.67    101964.66    122986.08   0.83578617 
     547         5.47     1021.654   -414779.23     13235.12   -401544.11     101842.5    122987.59    0.8357759 
     548         5.48       1023.3   -414802.85    13256.443   -401546.41    101719.74     122989.1   0.83576562 
     549         5.49    1024.9457    -414826.5    13277.762   -401548.74    101596.06    122990.62   0.83575533 
     550          5.5    1026.5912   -414850.16    13299.079   -401551.08    101472.25    122992.14   0.83574501 
     551         5.51    1028.2365   -414873.83    13320.392   -401553.43    101349.78    122993.66   0.83573468 
     552         5.52    1029.8815   -414897.54    13341.704   -401555.83     101225.8    122995.18   0.83572433 
     553         5.53    1031.5264   -414921.25    13363.013   -401558.24    101101.01    122996.71   0.83571397 
     554         5.54    1033.1711   -414944.87    13384.319   -401560.55    100976.07    122998.23   0.83570359 
     555         5.55    1034.8157   -414968.49    13405.623   -401562.87    100852.09    122999.77   0.83569319 
     556         5.56      1036.46    -414992.1    13426.925   -401565.18    100725.65     123001.3   0.83568277 
     557         5.57    1038.1041   -415015.85    13448.224   -401567.63    100600.04    123002.83   0.83567234 
     558         5.58    1039.7481   -415039.63    13469.522   -401570.11       100473    123004.37   0.83566189 
     559         5.59    1041.3916    -415063.6    13490.812   -401572.79    100315.41    123005.91   0.83565142 
     560          5.6    1043.0346   -415087.25    13512.097   -401575.15    100185.35    123007.46   0.83564094 
     561         5.61    1044.6775   -415110.89    13533.379   -401577.51    100055.26       123009   0.83563044 
     562         5.62    1046.3201   -415134.49    13554.659   -401579.83     99923.78    123010.55   0.83561992 
     563         5.63    1047.9626   -415158.11    13575.937   -401582.17    99793.208     123012.1   0.83560938 
     564         5.64     1049.605   -415181.84    13597.213   -401584.63    99662.506    123013.65   0.83559883 
     565         5.65    1051.2471   -415205.63    13618.486   -401587.14    99519.949    123015.21   0.83558827 
     566         5.66    1052.8885    -415229.4     13639.75   -401589.65    99357.344    123016.77   0.83557768 
     567         5.67    1054.5294   -415253.12    13661.007   -401592.11    99208.886    123018.33   0.83556708 
     568         5.68    1056.1697   -415276.93    13682.257   -401594.67    99059.511    123019.89   0.83555646 
     569         5.69    1057.8098   -415300.62    13703.504   -401597.12     98921.98    123021.46   0.83554583 
     570          5.7    1059.4497   -415324.48    13724.747   -401599.73    98776.958    123023.03   0.83553518 
     571         5.71    1061.0893   -415348.06    13745.987   -401602.07    98636.257     123024.6   0.83552451 
     572         5.72    1062.7286   -415371.96    13767.224   -401604.73    98487.917    123026.17   0.83551383 
     573         5.73    1064.3677   -415395.57    13788.458   -401607.11    98349.071    123027.74   0.83550313 
     574         5.74    1066.0066   -415419.21     13809.69   -401609.52    98211.301    123029.32   0.83549241 
     575         5.75    1067.6455   -415442.74     13830.92   -401611.82    98072.634     123030.9   0.83548168 
     576         5.76    1069.2842    -415466.4     13852.15   -401614.25    97935.463    123032.49   0.83547093 
     577         5.77    1070.9229    -415489.9    13873.378   -401616.52     97796.67    123034.07   0.83546017 
     578         5.78    1072.5615   -415513.47    13894.605   -401618.86    97658.475    123035.66   0.83544938 
     579         5.79       1074.2   -415537.04    13915.832   -401621.21    97520.091    123037.25   0.83543859 
     580          5.8    1075.8383   -415560.92    13937.056   -401623.87    97355.368    123038.84   0.83542777 
     581         5.81    1077.4758   -415584.91    13958.269   -401626.64    97163.717    123040.44   0.83541694 
     582         5.82    1079.1124   -415608.77     13979.47    -401629.3    96983.022    123042.04   0.83540609 
     583         5.83    1080.7485   -415632.54    14000.665   -401631.87    96824.691    123043.64   0.83539523 
     584         5.84    1082.3844   -415656.03    14021.857   -401634.18    96677.411    123045.24   0.83538435 
     585         5.85    1084.0202   -415679.57    14043.048   -401636.52    96531.056    123046.84   0.83537346 
     586         5.86    1085.6559   -415703.16    14064.238   -401638.92    96385.474    123048.45   0.83536254 
     587         5.87    1087.2915   -415726.92    14085.427   -401641.49    96227.384    123050.06   0.83535162 
     588         5.88    1088.9267   -415750.56    14106.611   -401643.95    96066.851    123051.67   0.83534067 
     589         5.89    1090.5618   -415774.21    14127.793   -401646.41    95920.025    123053.29   0.83532971 
     590          5.9    1092.1969   -415797.75    14148.975   -401648.78    95773.949     123054.9   0.83531874 
     591         5.91     1093.832   -415821.38    14170.157   -401651.22    95629.387    123056.52   0.83530775 
     592         5.92    1095.4673   -415844.92    14191.341   -401653.57    95483.525    123058.14   0.83529674 
     593         5.93    1097.1024   -415868.55    14212.523   -401656.03    95325.324    123059.77   0.83528572 
     594         5.94    1098.7374   -415892.18    14233.704   -401658.47     95179.14    123061.39   0.83527468 
     595         5.95    1100.3723   -415916.04    14254.883   -401661.16    95009.969    123063.02   0.83526362 
     596         5.96    1102.0069    -415939.8    14276.059   -401663.74    94847.967    123064.65   0.83525255 
     597         5.97    1103.6415   -415963.33    14297.234    -401666.1    94699.106    123066.29   0.83524147 
     598         5.98    1105.2761   -415987.01     14318.41    -401668.6    94539.045    123067.92   0.83523036 
     599         5.99    1106.9107   -416010.71    14339.586   -401671.12    94379.308    123069.56   0.83521925 
     600            6    1108.5453   -416034.49    14360.762   -401673.73    94215.958     123071.2   0.83520811 
     601         6.01    1110.1798   -416058.19    14381.936   -401676.25    94053.379    123072.84   0.83519696 
     602         6.02    1111.8141   -416082.13    14403.108   -401679.02    93878.541    123074.49    0.8351858 
     603         6.03    1113.4483   -416105.62    14424.278   -401681.34    93726.304    123076.14   0.83517462 
     604         6.04    1115.0826   -416129.25     14445.45    -401683.8    93577.039    123077.79   0.83516342 
     605         6.05    1116.7172   -416152.88    14466.625   -401686.26    93426.569    123079.44   0.83515221 
     606         6.06     1118.352   -416176.43    14487.804   -401688.63    93277.323    123081.09   0.83514099 
     607         6.07    1119.9871   -416200.02    14508.985   -401691.03    93129.631    123082.75   0.83512974 
     608         6.08    1121.6225   -416223.67    14530.171    -401693.5    92983.985    123084.41   0.83511849 
     609         6.09    1123.2582   -416247.33    14551.362   -401695.97    92839.861    123086.07   0.83510721 
     610          6.1    1124.8942   -416271.07    14572.555   -401698.52    92679.941    123087.73   0.83509593 
     611         6.11    1126.5304   -416294.63    14593.751   -401700.88    92533.169     123089.4   0.83508462 
     612         6.12    1128.1669   -416318.42    14614.951   -401703.47    92376.252    123091.07    0.8350733 
     613         6.13    1129.8035   -416342.17    14636.153   -401706.01    92215.651    123092.74   0.83506197 
     614         6.14    1131.4404   -416365.75    14657.358   -401708.39     92068.31    123094.41   0.83505062 
     615         6.15    1133.0775   -416389.46    14678.567    -401710.9    91907.599    123096.09   0.83503926 
     616         6.16    1134.7149    -416413.1    14699.779   -401713.32    91760.784    123097.77   0.83502788 
     617         6.17    1136.3527   -416436.78    14720.995   -401715.78    91600.913    123099.45   0.83501648 
     618         6.18    1137.9908   -416460.43    14742.216   -401718.21    91455.485    123101.13   0.83500507 
     619         6.19    1139.6293    -416484.2    14763.443   -401720.76    91299.098    123102.81   0.83499365 
     620          6.2    1141.2677    -416508.2    14784.667   -401723.54    91108.314     123104.5   0.83498221 
     621         6.21    1142.9059   -416532.01     14805.89   -401726.12    90946.589    123106.19   0.83497075 
     622         6.22    1144.5443    -416555.9    14827.114   -401728.79    90771.857    123107.88   0.83495928 
     623         6.23    1146.1828   -416579.49     14848.34   -401731.15    90618.594    123109.57    0.8349478 
     624         6.24    1147.8216   -416603.24     14869.57   -401733.67    90456.326    123111.27    0.8349363 
     625         6.25    1149.4607   -416627.09    14890.804   -401736.28    90298.872    123112.96   0.83492479 
     626         6.26    1151.1003   -416650.89    14912.044   -401738.84    90135.097    123114.66   0.83491326 
     627         6.27    1152.7403   -416674.71     14933.29   -401741.42    89980.612    123116.37   0.83490171 
     628         6.28    1154.3807   -416698.53    14954.541   -401743.99    89813.034    123118.07   0.83489015 
     629         6.29    1156.0216   -416722.18    14975.798   -401746.38    89667.002    123119.78   0.83487858 
     630          6.3     1157.663   -416746.05    14997.062   -401748.99    89506.396    123121.49   0.83486699 
     631         6.31    1159.3049   -416769.77    15018.332   -401751.44    89360.891     123123.2   0.83485539 
     632         6.32    1160.9473   -416793.78    15039.608   -401754.18     89187.71    123124.91   0.83484377 
     633         6.33      1162.59   -416817.68    15060.889   -401756.79    89027.287    123126.63   0.83483214 
     634         6.34    1164.2329   -416841.56    15082.172   -401759.39    88858.495    123128.35   0.83482049 
     635         6.35    1165.8762   -416865.31     15103.46   -401761.85    88712.223    123130.07   0.83480883 
     636         6.36    1167.5202   -416889.07    15124.758   -401764.31    88567.772    123131.79   0.83479715 
     637         6.37     1169.165    -416912.8    15146.065   -401766.73    88423.925    123133.51   0.83478546 
     638         6.38    1170.8104   -416936.71    15167.381   -401769.33    88269.938    123135.24   0.83477376 
     639         6.39    1172.4564   -416960.73    15188.704   -401772.03    88102.749    123136.97   0.83476204 
     640          6.4    1174.1029   -416984.59    15210.034   -401774.55    87958.266     123138.7   0.83475031 
     641         6.41    1175.7503   -417008.39    15231.375   -401777.02    87817.366    123140.43   0.83473856 
     642         6.42    1177.3985   -417032.11    15252.727   -401779.38    87677.217    123142.17    0.8347268 
     643         6.43    1179.0474   -417056.13    15274.089   -401782.04    87513.128     123143.9   0.83471502 
     644         6.44     1180.697   -417079.98    15295.458   -401784.52    87372.473    123145.64   0.83470323 
     645         6.45    1182.3476   -417103.79     15316.84   -401786.95     87232.68    123147.38   0.83469142 
     646         6.46     1183.999    -417127.7    15338.234   -401789.47    87087.361    123149.13   0.83467961 
     647         6.47    1185.6513   -417151.48    15359.639   -401791.84    86950.179    123150.87   0.83466777 
     648         6.48    1187.3045   -417175.51    15381.055   -401794.45    86796.889    123152.62   0.83465592 
     649         6.49    1188.9586   -417199.37    15402.484   -401796.89    86660.494    123154.37   0.83464406 
     650          6.5    1190.6137   -417223.38    15423.925   -401799.45    86517.878    123156.12   0.83463219 
     651         6.51    1192.2698   -417247.22    15445.379   -401801.85    86381.786    123157.88    0.8346203 
     652         6.52     1193.927    -417271.3    15466.847   -401804.45    86239.687    123159.64   0.83460839 
     653         6.53    1195.5851   -417295.33    15488.328      -401807    86096.059    123161.39   0.83459648 
     654         6.54    1197.2442   -417319.39    15509.821   -401809.57    85950.027    123163.16   0.83458454 
     655         6.55    1198.9043    -417343.3    15531.326   -401811.98    85815.633    123164.92    0.8345726 
     656         6.56    1200.5654    -417367.4    15552.846   -401814.55    85673.399    123166.68   0.83456064 
     657         6.57    1202.2278   -417391.31    15574.381   -401816.93    85539.964    123168.45   0.83454867 
     658         6.58    1203.8913    -417415.1    15595.931   -401819.17    85409.109    123170.22   0.83453668 
     659         6.59    1205.5559   -417439.14    15617.496   -401821.64    85282.001    123171.99   0.83452468 
     660          6.6    1207.2218    -417463.1    15639.076   -401824.03    85153.477    123173.76   0.83451266 
     661         6.61     1208.889    -417487.2    15660.674   -401826.53    85027.528    123175.54   0.83450063 
     662         6.62    1210.5575   -417511.26    15682.289   -401828.97    84886.131    123177.32   0.83448859 
     663         6.63    1212.2272   -417535.32    15703.918    -401831.4    84760.575     123179.1   0.83447653 
     664         6.64    1213.8981   -417559.43    15725.565   -401833.87    84624.953    123180.88   0.83446446 
     665         6.65    1215.5703   -417583.47    15747.228   -401836.24     84500.46    123182.66   0.83445238 
     666         6.66     1217.244   -417607.47     15768.91   -401838.56    84376.821    123184.45   0.83444028 
     667         6.67    1218.9191   -417631.47     15790.61   -401840.86     84254.84    123186.24   0.83442817 
     668         6.68    1220.5955   -417655.92    15812.327   -401843.59    84110.708    123188.03   0.83441605 
     669         6.69    1222.2732   -417680.01    15834.061   -401845.95    83989.151    123189.82   0.83440391 
     670          6.7    1223.9523   -417704.19    15855.814   -401848.37    83870.169    123191.61   0.83439176 
     671         6.71    1225.6329   -417728.58    15877.585   -401850.99    83728.089    123193.41   0.83437959 
     672         6.72    1227.3148   -417752.94    15899.372   -401853.56    83599.374    123195.21   0.83436742 
     673         6.73    1228.9981   -417777.36    15921.179   -401856.18    83473.836    123197.01   0.83435522 
     674         6.74     1230.683   -417801.61    15943.006    -401858.6    83356.342    123198.81   0.83434302 
     675         6.75    1232.3695   -417825.97    15964.854   -401861.11    83241.259    123200.61    0.8343308 
     676         6.76    1234.0576   -417850.39    15986.723   -401863.66    83117.294    123202.42   0.83431857 
     677         6.77    1235.7472   -417874.84    16008.612   -401866.23    82988.497    123204.23   0.83430632 
     678         6.78    1237.4384   -417899.15    16030.521   -401868.63     82875.01    123206.04   0.83429406 
     679         6.79    1239.1314   -417923.51    16052.452   -401871.06    82763.422    123207.85   0.83428179 
     680          6.8    1240.8262   -417947.85    16074.407   -401873.44     82652.67    123209.66   0.83426951 
     681         6.81    1242.5227   -417972.01    16096.385   -401875.63    82542.056    123211.48   0.83425721 
     682         6.82    1244.2209    -417996.6    16118.385   -401878.21    82422.282     123213.3    0.8342449 
     683         6.83    1245.9208   -418021.16    16140.407   -401880.75    82302.099    123215.12   0.83423257 
     684         6.84    1247.6225    -418045.6    16162.452   -401883.14    82194.841    123216.94   0.83422023 
     685         6.85    1249.3261   -418070.32     16184.52    -401885.8    82077.863    123218.77   0.83420788 
     686         6.86    1251.0312   -418095.23     16206.61   -401888.62    81953.658    123220.59   0.83419552 
     687         6.87    1252.7382   -418119.76    16228.722   -401891.04    81847.927    123222.42   0.83418314 
[...]
    5381        53.81    1333.5496   -428409.08    17275.603   -411133.47   -22584.202    128385.71    0.8006348 
    5382        53.82    1333.7828   -428413.42    17278.624   -411134.79   -22636.196    128385.26   0.80063758 
    5383        53.83    1334.0179   -428418.04    17281.669   -411136.37    -22687.24    128384.81   0.80064037 
    5384        53.84    1334.2547    -428422.5    17284.737   -411137.76   -22740.983    128384.37   0.80064316 
    5385        53.85    1334.4937   -428427.24    17287.833    -411139.4   -22789.955    128383.92   0.80064596 
    5386        53.86    1334.7353   -428431.64    17290.963   -411140.68   -22829.192    128383.47   0.80064876 
    5387        53.87    1334.9793   -428436.12    17294.123      -411142   -22872.565    128383.02   0.80065156 
    5388        53.88    1335.2254   -428440.84    17297.311   -411143.53   -22926.002    128382.57   0.80065436 
    5389        53.89    1335.4737   -428445.26    17300.528   -411144.73    -22967.83    128382.12   0.80065717 
    5390         53.9    1335.7237   -428450.11    17303.767   -411146.35   -23013.146    128381.67   0.80065998 
    5391        53.91    1335.9751   -428455.07    17307.023   -411148.05   -23070.133    128381.22    0.8006628 
    5392        53.92    1336.2282   -428459.67    17310.303   -411149.36   -23115.954    128380.77   0.80066562 
    5393        53.93    1336.4838   -428464.27    17313.614   -411150.65   -23157.638    128380.31   0.80066844 
    5394        53.94    1336.7418   -428469.13    17316.956   -411152.18   -23200.411    128379.86   0.80067127 
    5395        53.95    1337.0018    -428473.8    17320.324   -411153.48   -23235.301    128379.41    0.8006741 
    5396        53.96    1337.2636   -428478.51    17323.716   -411154.79   -23267.161    128378.95   0.80067693 
    5397        53.97    1337.5274   -428483.22    17327.133   -411156.09   -23299.881     128378.5   0.80067977 
    5398        53.98    1337.7933   -428487.93    17330.577   -411157.36   -23341.965    128378.04   0.80068261 
    5399        53.99    1338.0612   -428492.86    17334.048   -411158.81   -23388.736    128377.59   0.80068545 
    5400           54    1338.3311   -428497.84    17337.544   -411160.29   -23435.668    128377.13    0.8006883 
    5401        54.01    1338.6026   -428502.95    17341.061   -411161.89   -23498.025    128376.67   0.80069115 
    5402        54.02    1338.8755   -428507.86    17344.597   -411163.26   -23544.724    128376.22     0.800694 
    5403        54.03      1339.15   -428512.64    17348.153   -411164.49   -23578.414    128375.76   0.80069686 
    5404        54.04    1339.4255   -428517.53    17351.723   -411165.81   -23604.496     128375.3   0.80069972 
    5405        54.05    1339.7019   -428522.59    17355.303   -411167.29    -23629.26    128374.84   0.80070258 
    5406        54.06    1339.9791   -428527.19    17358.893    -411168.3   -23648.978    128374.38   0.80070545 
    5407        54.07    1340.2568    -428532.4    17362.492   -411169.91    -23688.02    128373.92   0.80070832 
    5408        54.08    1340.5343   -428537.31    17366.086   -411171.22   -23729.514    128373.46    0.8007112 
    5409        54.09    1340.8104   -428542.45    17369.663   -411172.79    -23776.83       128373   0.80071407 
    5410         54.1    1341.0855   -428547.23    17373.227   -411174.01    -23796.45    128372.54   0.80071695 
    5411        54.11    1341.3602   -428552.29    17376.785    -411175.5   -23815.072    128372.07   0.80071984 
    5412        54.12    1341.6341   -428557.25    17380.334   -411176.92   -23825.095    128371.61   0.80072273 
    5413        54.13    1341.9069    -428562.1    17383.868   -411178.23   -23852.664    128371.15   0.80072562 
    5414        54.14    1342.1784      -428567    17387.385   -411179.62   -23856.591    128370.68   0.80072852 
    5415        54.15    1342.4485   -428571.93    17390.884   -411181.05   -23873.555    128370.22   0.80073142 
    5416        54.16    1342.7168   -428577.07     17394.36   -411182.71   -23907.946    128369.75   0.80073432 
    5417        54.17    1342.9834    -428582.1    17397.813   -411184.28   -23914.098    128369.29   0.80073723 
    5418        54.18    1343.2483   -428587.26    17401.245   -411186.02   -23943.869    128368.82   0.80074014 
    5419        54.19    1343.5118   -428591.88    17404.659   -411187.22    -23959.62    128368.35   0.80074305 
    5420         54.2    1343.7745   -428596.36    17408.061    -411188.3   -23965.323    128367.88   0.80074597 
    5421        54.21    1344.0359   -428601.17    17411.449   -411189.73   -23980.228    128367.42   0.80074889 
    5422        54.22    1344.2965   -428605.95    17414.823   -411191.12    -24001.76    128366.95   0.80075181 
    5423        54.23    1344.5564   -428610.59     17418.19   -411192.39   -24014.146    128366.48   0.80075474 
    5424        54.24     1344.816    -428615.3    17421.555   -411193.75   -24039.865    128366.01   0.80075767 
    5425        54.25    1345.0756   -428620.33    17424.917   -411195.42   -24098.497    128365.54   0.80076061 
    5426        54.26    1345.3352   -428625.02    17428.279   -411196.74   -24144.006    128365.07   0.80076355 
    5427        54.27    1345.5949   -428629.72    17431.645   -411198.07   -24176.488    128364.59   0.80076649 
    5428        54.28    1345.8549   -428634.42    17435.012    -411199.4   -24211.536    128364.12   0.80076943 
    5429        54.29    1346.1154   -428639.17    17438.387   -411200.79    -24205.35    128363.65   0.80077238 
    5430         54.3    1346.3769   -428644.06    17441.775   -411202.29   -24238.905    128363.18   0.80077534 
    5431        54.31    1346.6393   -428648.69    17445.175   -411203.51   -24274.952     128362.7   0.80077829 
    5432        54.32    1346.9024   -428653.59    17448.583   -411205.01    -24321.15    128362.23   0.80078125 
    5433        54.33     1347.166   -428658.12    17451.997   -411206.12    -24371.89    128361.75   0.80078422 
    5434        54.34    1347.4298   -428663.01    17455.415   -411207.59   -24426.158    128361.28   0.80078718 
    5435        54.35    1347.6942   -428667.88     17458.84   -411209.04    -24477.95     128360.8   0.80079015 
    5436        54.36    1347.9595   -428672.83    17462.277   -411210.55   -24528.871    128360.32   0.80079313 
    5437        54.37    1348.2257   -428677.76    17465.725   -411212.03   -24586.705    128359.85   0.80079611 
    5438        54.38    1348.4925    -428682.8    17469.182   -411213.62    -24646.88    128359.37   0.80079909 
    5439        54.39    1348.7603   -428687.74    17472.651   -411215.09   -24690.413    128358.89   0.80080208 
    5440         54.4    1349.0294   -428692.53    17476.136   -411216.39   -24723.731    128358.41   0.80080506 
    5441        54.41    1349.2988   -428697.41    17479.627   -411217.79   -24758.158    128357.93   0.80080806 
    5442        54.42    1349.5677   -428702.13     17483.11   -411219.02   -24801.975    128357.45   0.80081105 
    5443        54.43    1349.8369   -428706.91    17486.598   -411220.31   -24834.789    128356.97   0.80081405 
    5444        54.44    1350.1071   -428711.59    17490.097   -411221.49   -24872.733    128356.49   0.80081706 
    5445        54.45    1350.3779   -428716.48    17493.606   -411222.88   -24922.485    128356.01   0.80082007 
    5446        54.46    1350.6489   -428721.36    17497.117   -411224.24   -24949.228    128355.52   0.80082308 
    5447        54.47    1350.9201   -428726.48     17500.63   -411225.85   -25006.194    128355.04   0.80082609 
    5448        54.48     1351.192   -428731.26    17504.153   -411227.11   -25037.109    128354.56   0.80082911 
    5449        54.49    1351.4646   -428736.08    17507.685   -411228.39    -25068.72    128354.07   0.80083213 
    5450         54.5    1351.7379   -428741.25    17511.225   -411230.02   -25099.255    128353.59   0.80083516 
    5451        54.51    1352.0126   -428745.83    17514.783   -411231.05   -25069.792     128353.1   0.80083819 
    5452        54.52    1352.2885   -428750.84    17518.357   -411232.49   -25101.175    128352.62   0.80084122 
    5453        54.53    1352.5648   -428755.99    17521.936   -411234.05    -25140.12    128352.13   0.80084426 
    5454        54.54    1352.8413   -428760.66    17525.519   -411235.14   -25177.519    128351.64    0.8008473 
    5455        54.55     1353.118   -428765.67    17529.103   -411236.57   -25194.232    128351.15   0.80085035 
    5456        54.56    1353.3948   -428770.58    17532.689   -411237.89   -25213.093    128350.66    0.8008534 
    5457        54.57    1353.6713   -428775.92    17536.271   -411239.65   -25266.635    128350.18   0.80085645 
    5458        54.58     1353.947   -428781.01    17539.842   -411241.17   -25318.924    128349.69   0.80085951 
    5459        54.59    1354.2215   -428786.12    17543.399   -411242.73   -25381.957     128349.2   0.80086257 
    5460         54.6    1354.4954      -428791    17546.946   -411244.05   -25420.343     128348.7   0.80086563 
    5461        54.61    1354.7687   -428795.67    17550.488   -411245.19   -25439.447    128348.21    0.8008687 
    5462        54.62    1355.0419    -428800.5    17554.026   -411246.48   -25454.916    128347.72   0.80087177 
    5463        54.63     1355.315   -428805.62    17557.564   -411248.05   -25506.362    128347.23   0.80087484 
    5464        54.64     1355.588   -428810.41    17561.101   -411249.31   -25549.396    128346.73   0.80087792 
    5465        54.65    1355.8608   -428815.26    17564.636   -411250.63   -25606.045    128346.24   0.80088101 
    5466        54.66    1356.1333   -428820.19    17568.165   -411252.03   -25637.002    128345.75   0.80088409 
    5467        54.67    1356.4054   -428825.19     17571.69    -411253.5    -25677.49    128345.25   0.80088718 
    5468        54.68    1356.6773   -428830.22    17575.212   -411255.01   -25728.716    128344.75   0.80089028 
    5469        54.69    1356.9482   -428835.08    17578.722   -411256.36   -25760.027    128344.26   0.80089338 
    5470         54.7     1357.218   -428839.89    17582.216   -411257.68    -25819.75    128343.76   0.80089648 
    5471        54.71    1357.4872   -428844.75    17585.704   -411259.04   -25860.805    128343.26   0.80089958 
    5472        54.72    1357.7562   -428849.53    17589.189   -411260.34   -25901.136    128342.76   0.80090269 
    5473        54.73    1358.0249   -428854.56     17592.67   -411261.89   -25957.866    128342.27   0.80090581 
    5474        54.74    1358.2927   -428859.94    17596.139    -411263.8   -26018.483    128341.77   0.80090892 
    5475        54.75    1358.5595   -428864.64    17599.596   -411265.04   -26047.537    128341.27   0.80091205 
    5476        54.76    1358.8262    -428869.5     17603.05   -411266.45   -26079.695    128340.77   0.80091517 
    5477        54.77    1359.0929   -428874.32    17606.506   -411267.81   -26120.609    128340.26    0.8009183 
    5478        54.78    1359.3598   -428878.99    17609.963   -411269.02   -26135.188    128339.76   0.80092143 
    5479        54.79    1359.6267   -428883.72    17613.421    -411270.3   -26164.961    128339.26   0.80092457 
    5480         54.8    1359.8937    -428888.6    17616.879   -411271.72   -26206.802    128338.76   0.80092771 
    5481        54.81    1360.1607   -428893.67    17620.339   -411273.33   -26253.083    128338.25   0.80093085 
    5482        54.82    1360.4276   -428898.68    17623.796   -411274.88   -26292.125    128337.75     0.800934 
    5483        54.83    1360.6939   -428903.72    17627.246   -411276.47   -26358.337    128337.24   0.80093716 
    5484        54.84    1360.9598    -428908.8    17630.691    -411278.1   -26404.276    128336.74   0.80094031 
    5485        54.85    1361.2247   -428913.54    17634.122   -411279.42     -26446.8    128336.23   0.80094347 
    5486        54.86    1361.4889    -428918.2    17637.544   -411280.65   -26500.943    128335.72   0.80094664 
    5487        54.87    1361.7537   -428922.91    17640.975   -411281.94   -26549.557    128335.22   0.80094981 
    5488        54.88    1362.0189   -428927.74    17644.411   -411283.33   -26616.472    128334.71   0.80095298 
    5489        54.89    1362.2851   -428932.47    17647.859   -411284.61   -26659.034     128334.2   0.80095615 
    5490         54.9    1362.5529   -428937.06    17651.328   -411285.74   -26695.506    128333.69   0.80095933 
    5491        54.91    1362.8225   -428942.15    17654.821   -411287.32   -26745.185    128333.18   0.80096252 
    5492        54.92    1363.0949   -428947.01     17658.35   -411288.66   -26771.434    128332.67   0.80096571 
    5493        54.93    1363.3703   -428952.04    17661.918   -411290.13   -26808.219    128332.16    0.8009689 
    5494        54.94     1363.648   -428957.02    17665.515   -411291.51   -26845.575    128331.64   0.80097209 
    5495        54.95    1363.9278   -428961.84     17669.14    -411292.7    -26884.41    128331.13   0.80097529 
    5496        54.96    1364.2099   -428966.82    17672.794   -411294.02   -26915.147    128330.62    0.8009785 
    5497        54.97    1364.4948   -428971.87    17676.485   -411295.39   -26949.631     128330.1   0.80098171 
    5498        54.98    1364.7825   -428976.84    17680.212   -411296.62   -26984.435    128329.59   0.80098492 
    5499        54.99    1365.0731   -428981.73    17683.977   -411297.76   -27019.148    128329.07   0.80098814 
    5500           55    1365.3671   -428986.98    17687.786   -411299.19   -27049.534    128328.56   0.80099136 
    5501        55.01    1365.6643   -428992.47    17691.635   -411300.84   -27081.002    128328.04   0.80099458 
    5502        55.02    1365.9644   -428997.45    17695.523   -411301.93   -27097.817    128327.52   0.80099781 
    5503        55.03    1366.2681   -429002.78    17699.458   -411303.32    -27125.47    128327.01   0.80100104 
    5504        55.04    1366.5759   -429008.11    17703.445   -411304.67   -27149.499    128326.49   0.80100428 
    5505        55.05    1366.8873   -429013.37    17707.479   -411305.89   -27157.466    128325.97   0.80100752 
    5506        55.06    1367.2018   -429018.59    17711.553   -411307.04   -27209.443    128325.45   0.80101076 
    5507        55.07    1367.5197   -429023.92    17715.671   -411308.24    -27222.16    128324.93   0.80101401 
    5508        55.08    1367.8414   -429029.47    17719.839   -411309.63   -27241.784    128324.41   0.80101726 
    5509        55.09    1368.1668   -429035.29    17724.054   -411311.23   -27276.171    128323.89   0.80102052 
    5510         55.1    1368.4963   -429040.95    17728.322   -411312.63   -27309.563    128323.36   0.80102378 
    5511        55.11    1368.8303   -429046.89    17732.649   -411314.24   -27332.475    128322.84   0.80102705 
    5512        55.12    1369.1688   -429052.75    17737.035   -411315.71   -27359.124    128322.32   0.80103032 
    5513        55.13    1369.5119   -429058.62     17741.48   -411317.14   -27363.639    128321.79   0.80103359 
    5514        55.14    1369.8594   -429064.87    17745.981   -411318.89   -27387.079    128321.27   0.80103687 
    5515        55.15    1370.2107   -429070.83    17750.532    -411320.3   -27384.135    128320.74   0.80104015 
    5516        55.16    1370.5658   -429076.63    17755.132    -411321.5   -27380.547    128320.22   0.80104343 
    5517        55.17    1370.9246   -429082.29     17759.78   -411322.51   -27356.898    128319.69   0.80104672 
    5518        55.18    1371.2873   -429088.33    17764.479   -411323.85   -27360.155    128319.16   0.80105001 
    5519        55.19    1371.6536   -429094.54    17769.224   -411325.31   -27370.517    128318.63   0.80105331 
    5520         55.2    1372.0226   -429101.04    17774.005   -411327.03   -27407.019     128318.1   0.80105661 
    5521        55.21    1372.3946   -429107.18    17778.824   -411328.36   -27413.896    128317.57   0.80105992 
    5522        55.22    1372.7698    -429113.4    17783.684   -411329.71   -27407.186    128317.04   0.80106323 
    5523        55.23    1373.1479   -429119.68    17788.583   -411331.09   -27404.893    128316.51   0.80106654 
    5524        55.24    1373.5292   -429125.73    17793.521   -411332.21   -27404.239    128315.98   0.80106986 
    5525        55.25    1373.9129   -429131.94    17798.492   -411333.45   -27408.563    128315.45   0.80107318 
    5526        55.26    1374.2989   -429138.16    17803.493   -411334.67   -27394.432    128314.92   0.80107651 
    5527        55.27    1374.6874   -429144.66    17808.526   -411336.13   -27380.251    128314.38   0.80107984 
    5528        55.28    1375.0784   -429151.28    17813.591   -411337.69   -27356.647    128313.85   0.80108317 
    5529        55.29    1375.4712   -429158.45    17818.679   -411339.77   -27356.779    128313.31   0.80108651 
    5530         55.3     1375.865   -429164.65    17823.781   -411340.87   -27346.823    128312.78   0.80108986 
    5531        55.31    1376.2597   -429171.24    17828.895   -411342.34   -27311.079    128312.24    0.8010932 
    5532        55.32    1376.6562   -429177.63    17834.032    -411343.6   -27241.204    128311.71   0.80109655 
    5533        55.33    1377.0546   -429184.21    17839.192   -411345.02   -27209.128    128311.17   0.80109991 
    5534        55.34     1377.454      -429191    17844.366   -411346.63   -27197.065    128310.63   0.80110327 
    5535        55.35    1377.8541   -429197.62    17849.549   -411348.07   -27169.622    128310.09   0.80110663 
    5536        55.36    1378.2544   -429204.17    17854.735   -411349.43   -27150.057    128309.55      0.80111 
    5537        55.37    1378.6549    -429210.7    17859.923   -411350.77   -27131.963    128309.01   0.80111337 
    5538        55.38    1379.0552   -429217.49    17865.109   -411352.38   -27120.373    128308.47   0.80111674 
    5539        55.39    1379.4549   -429223.84    17870.287   -411353.55   -27087.587    128307.93   0.80112012 
    5540         55.4    1379.8544    -429230.2    17875.462   -411354.74   -27072.615    128307.39    0.8011235 
    5541        55.41    1380.2536   -429236.89    17880.634   -411356.26   -27057.234    128306.85   0.80112689 
    5542        55.42    1380.6517   -429243.56    17885.792   -411357.77     -27015.4     128306.3   0.80113028 
    5543        55.43    1381.0487   -429250.12    17890.934   -411359.19   -26992.346    128305.76   0.80113368 
    5544        55.44     1381.445   -429256.78    17896.068   -411360.71   -26996.134    128305.22   0.80113707 
    5545        55.45    1381.8406   -429262.93    17901.193   -411361.74   -26978.286    128304.67   0.80114048 
    5546        55.46    1382.2348   -429269.99    17906.299   -411363.69   -26959.148    128304.13   0.80114388 
    5547        55.47    1382.6277   -429276.63    17911.389   -411365.24   -26920.148    128303.58    0.8011473 
    5548        55.48    1383.0188   -429283.23    17916.456   -411366.78   -26948.388    128303.03   0.80115071 
    5549        55.49    1383.4081   -429289.84    17921.499   -411368.34   -26965.057    128302.49   0.80115413 
    5550         55.5    1383.7968   -429296.34    17926.534   -411369.81   -26969.851    128301.94   0.80115755 
    5551        55.51    1384.1847    -429302.8     17931.56   -411371.24   -26960.194    128301.39   0.80116098 
    5552        55.52    1384.5723   -429308.87    17936.581   -411372.29   -26957.764    128300.84   0.80116441 
    5553        55.53    1384.9595   -429315.45    17941.597   -411373.86   -26999.555    128300.29   0.80116784 
    5554        55.54    1385.3466   -429321.85    17946.612   -411375.24   -27001.756    128299.74   0.80117128 
    5555        55.55    1385.7336    -429328.5    17951.625   -411376.87   -27037.234    128299.19   0.80117473 
    5556        55.56    1386.1211   -4