LAMMPS (19 Sep 2019)
OMP_NUM_THREADS environment is not set. Defaulting to 1 thread. (../comm.cpp:93)
  using 1 OpenMP thread(s) per MPI task
Reading data file ...
  orthogonal box = (-7.24978 -6.9703 -11.2527) to (7.86676 6.1851 11.5769)
  1 by 1 by 1 MPI processor grid
  reading atoms ...
  161 atoms
  read_data CPU = 0.0005283 secs
Replicating atoms ...
  orthogonal box = (-7.24978 -6.9703 -11.2527) to (38.0998 32.4959 57.2362)
  1 by 1 by 1 MPI processor grid
  4347 atoms
  replicate CPU = 0.0002702 secs
Reading potential file ffield.reax.FC with DATE: 2013-06-28
WARNING: Changed valency_val to valency_boc for X (../reaxc_ffield.cpp:315)
Neighbor list info ...
  update every 10 steps, delay 0 steps, check no
  max neighbors/atom: 2000, page size: 100000
  master list distance cutoff = 12
  ghost atom cutoff = 12
  binsize = 6, bins = 8 7 12
  2 neighbor lists, perpetual/occasional/extra = 2 0 0
  (1) pair reax/c, perpetual
      attributes: half, newton off, ghost
      pair build: half/bin/newtoff/ghost
      stencil: half/ghost/bin/3d/newtoff
      bin: standard
  (2) fix qeq/reax, perpetual, copy from (1)
      attributes: half, newton off, ghost
      pair build: copy
      stencil: none
      bin: none
Setting up Verlet run ...
  Unit style    : real
  Current step  : 0
  Time step     : 0.01
Per MPI rank memory allocation (min/avg/max) = 289.7 | 289.7 | 289.7 Mbytes
Step Time Temp PotEng KinEng TotEng Press Volume Density 
       0            0          300   -404720.66    3886.3801   -400834.28    100868.09    122579.92   0.83855551 
       1         0.01    299.97157    -404720.3    3886.0118   -400834.28    100869.86    122579.92   0.83855547 
       2         0.02    299.95348   -404720.08    3885.7775   -400834.31    100871.55    122579.94   0.83855537 
       3         0.03    299.94573   -404720.02    3885.6772   -400834.34    100873.19    122579.96   0.83855519 
       4         0.04    299.94829   -404720.35    3885.7102   -400834.64    100875.84       122580   0.83855495 
       5         0.05    299.96104   -404721.23    3885.8754   -400835.35    100880.24    122580.05   0.83855463 
       6         0.06    299.98396      -404722    3886.1723   -400835.83    100883.94     122580.1   0.83855425 
       7         0.07    300.01704   -404723.37    3886.6009   -400836.77    100889.18    122580.17   0.83855379 
       8         0.08    300.06026   -404724.58    3887.1608   -400837.42    100893.59    122580.25   0.83855327 
       9         0.09    300.11364   -404726.09    3887.8523   -400838.24    100898.48    122580.33   0.83855267 
      10          0.1    300.17718   -404727.65    3888.6755   -400838.98    100903.11    122580.43   0.83855201 
      11         0.11     300.2509   -404729.36    3889.6305   -400839.73    100907.47    122580.54   0.83855127 
      12         0.12    300.33484   -404730.86    3890.7179   -400840.15    100910.56    122580.66   0.83855047 
      13         0.13    300.42901   -404732.67    3891.9379   -400840.73    100913.93    122580.78   0.83854959 
      14         0.14    300.53341   -404734.72    3893.2903   -400841.43    100917.75    122580.92   0.83854865 
      15         0.15    300.64803   -404736.67    3894.7751   -400841.89    100920.69    122581.07   0.83854763 
      16         0.16    300.77288   -404738.96    3896.3925   -400842.57    100924.19    122581.23   0.83854654 
      17         0.17    300.90795    -404741.4    3898.1422   -400843.26    100927.57     122581.4   0.83854539 
      18         0.18    301.05324   -404743.75    3900.0244   -400843.72    100930.22    122581.58   0.83854416 
      19         0.19    301.20875   -404746.39    3902.0391   -400844.35    100933.24    122581.77   0.83854287 
      20          0.2    301.37447   -404749.17    3904.1859   -400844.99    100936.21    122581.97    0.8385415 
      21         0.21    301.55039   -404752.06    3906.4648   -400845.59    100939.14    122582.18   0.83854007 
      22         0.22    301.73649   -404754.99    3908.8757   -400846.12    100941.54     122582.4   0.83853856 
      23         0.23    301.93278   -404758.22    3911.4185    -400846.8    100944.53    122582.63   0.83853699 
      24         0.24    302.13923    -404761.4    3914.0931    -400847.3     100946.8    122582.87   0.83853534 
      25         0.25    302.35588   -404764.57    3916.8996   -400847.67    100948.44    122583.12   0.83853363 
      26         0.26     302.5827   -404768.05     3919.838   -400848.21    100950.58    122583.38   0.83853184 
      27         0.27    302.81968   -404771.77    3922.9079   -400848.87    100953.05    122583.65   0.83852998 
      28         0.28    303.06679   -404775.59    3926.1092   -400849.48    100955.49    122583.93   0.83852806 
      29         0.29    303.32404    -404779.5    3929.4417   -400850.06     100957.7    122584.22   0.83852606 
      30          0.3    303.59141    -404783.6    3932.9054    -400850.7    100960.13    122584.52     0.838524 
      31         0.31    303.86888   -404788.02    3936.4999   -400851.52    100963.21    122584.84   0.83852186 
      32         0.32    304.15641   -404792.47    3940.2248   -400852.25     100966.1    122585.16   0.83851965 
      33         0.33    304.45402   -404797.01    3944.0802   -400852.93    100968.82    122585.49   0.83851738 
      34         0.34    304.76167    -404801.8    3948.0657   -400853.74    100971.78    122585.84   0.83851503 
      35         0.35    305.07935   -404806.58    3952.1811    -400854.4    100974.34    122586.19   0.83851262 
      36         0.36    305.40706   -404811.51    3956.4264   -400855.09    100977.06    122586.55   0.83851013 
      37         0.37    305.74477   -404816.69    3960.8014   -400855.89    100980.22    122586.93   0.83850757 
      38         0.38    306.09247   -404822.01    3965.3057    -400856.7    100983.51    122587.31   0.83850495 
      39         0.39    306.45014   -404827.27    3969.9392   -400857.33    100986.15     122587.7   0.83850225 
      40          0.4    306.81778   -404832.68    3974.7017   -400857.98    100988.91    122588.11   0.83849948 
      41         0.41    307.19534   -404838.44    3979.5929   -400858.85    100992.44    122588.52   0.83849665 
      42         0.42    307.58282   -404844.14    3984.6125   -400859.53    100995.52    122588.95   0.83849374 
      43         0.43    307.98017   -404850.13    3989.7601   -400860.37    100998.97    122589.38   0.83849076 
      44         0.44    308.38736   -404856.19    3995.0351   -400861.15    101002.87    122589.83   0.83848772 
      45         0.45    308.80437   -404862.31    4000.4372   -400861.87     101006.3    122590.28    0.8384846 
      46         0.46    309.23117   -404868.77    4005.9663    -400862.8    101010.31    122590.75   0.83848141 
      47         0.47    309.66775   -404875.32    4011.6219   -400863.69    101014.36    122591.23   0.83847815 
      48         0.48    310.11408   -404881.86     4017.404   -400864.46    101018.72    122591.71   0.83847483 
      49         0.49    310.57015   -404888.79    4023.3122   -400865.48    101023.49    122592.21   0.83847143 
      50          0.5    311.03591   -404895.76     4029.346   -400866.42     101028.3    122592.72   0.83846796 
      51         0.51    311.51134   -404902.92     4035.505   -400867.42    101033.47    122593.23   0.83846442 
      52         0.52     311.9964   -404910.28    4041.7888   -400868.49    101039.05    122593.76   0.83846082 
      53         0.53    312.49106   -404917.72    4048.1969   -400869.52     101044.7     122594.3   0.83845714 
      54         0.54    312.99532   -404925.11    4054.7293   -400870.38    101050.32    122594.85   0.83845339 
      55         0.55    313.50916   -404932.74    4061.3859   -400871.35    101056.52    122595.41   0.83844957 
      56         0.56    314.03255   -404940.41    4068.1662   -400872.24    101062.52    122595.97   0.83844569 
      57         0.57    314.56545   -404948.26    4075.0698   -400873.19     101068.9    122596.55   0.83844173 
      58         0.58    315.10784   -404956.41    4082.0962   -400874.31    101076.16    122597.14    0.8384377 
      59         0.59    315.65968   -404964.54     4089.245   -400875.29    101083.86    122597.74    0.8384336 
      60          0.6    316.22093   -404972.95    4096.5158   -400876.43    101091.56    122598.35   0.83842943 
      61         0.61    316.79156   -404981.25    4103.9081   -400877.35    101099.26    122598.97   0.83842519 
      62         0.62    317.37154   -404989.88    4111.4215   -400878.46    101107.51     122599.6   0.83842088 
      63         0.63    317.96082   -404998.55    4119.0554    -400879.5    101116.06    122600.24    0.8384165 
      64         0.64    318.55939   -405007.41    4126.8096    -400880.6    101125.16    122600.89   0.83841206 
      65         0.65     319.1672   -405016.31    4134.6835   -400881.62    101134.52    122601.55   0.83840754 
      66         0.66    319.78423   -405025.34    4142.6769   -400882.66    101144.32    122602.22   0.83840295 
      67         0.67    320.41041   -405034.77    4150.7888   -400883.98    101155.36    122602.91   0.83839829 
      68         0.68    321.04568   -405044.26    4159.0185   -400885.24    101166.54     122603.6   0.83839356 
      69         0.69    321.69002   -405053.87    4167.3657    -400886.5     101178.7     122604.3   0.83838876 
      70          0.7    322.34338   -405063.58    4175.8298   -400887.75    101190.86    122605.01   0.83838389 
      71         0.71    323.00576   -405073.42    4184.4106   -400889.01    101203.44    122605.73   0.83837895 
      72         0.72     323.6771   -405083.29    4193.1075   -400890.18    101216.36    122606.47   0.83837394 
      73         0.73    324.35735   -405093.49    4201.9199   -400891.57    101230.19    122607.21   0.83836886 
      74         0.74    325.04647   -405103.58    4210.8471   -400892.73    101244.26    122607.96    0.8383637 
      75         0.75    325.74443    -405113.9    4219.8889   -400894.01    101258.81    122608.73   0.83835848 
      76         0.76    326.45118   -405124.39    4229.0446   -400895.34    101274.28     122609.5   0.83835319 
      77         0.77     327.1667   -405134.87    4238.3138   -400896.56    101290.22    122610.28   0.83834783 
      78         0.78    327.89092   -405145.58    4247.6959   -400897.88    101306.81    122611.08    0.8383424 
      79         0.79    328.62383   -405156.32    4257.1904   -400899.13    101323.86    122611.88    0.8383369 
      80          0.8    329.36537   -405167.28    4266.7967   -400900.48    101341.97     122612.7   0.83833132 
      81         0.81     330.1155   -405178.22    4276.5144   -400901.71    101360.29    122613.52   0.83832568 
      82         0.82    330.87419   -405189.39     4286.343   -400903.04    101379.47    122614.36   0.83831997 
      83         0.83    331.64138   -405200.68    4296.2816    -400904.4    101399.36    122615.21   0.83831419 
      84         0.84    332.41698   -405212.42    4306.3291   -400906.09    101420.43    122616.06   0.83830833 
      85         0.85    333.20091      -405224    4316.4847   -400907.52    101441.63    122616.93   0.83830241 
      86         0.86    333.99318   -405235.71    4326.7482   -400908.96    101463.61     122617.8   0.83829641 
      87         0.87    334.79373   -405247.54     4337.119   -400910.42    101486.54    122618.69   0.83829035 
      88         0.88     335.6025   -405259.44    4347.5964   -400911.85    101509.92    122619.59   0.83828421 
      89         0.89    336.41947   -405271.47    4358.1798   -400913.29    101534.05     122620.5   0.83827801 
      90          0.9    337.24457   -405283.62    4368.8687   -400914.75    101559.04    122621.41   0.83827173 
      91         0.91    338.07774   -405296.12     4379.662   -400916.46       101585    122622.34   0.83826539 
      92         0.92    338.91891   -405308.61    4390.5591   -400918.05     101611.8    122623.28   0.83825897 
      93         0.93    339.76807   -405321.07    4401.5596   -400919.51    101639.15    122624.23   0.83825248 
      94         0.94    340.62516   -405333.79    4412.6629   -400921.13     101667.4    122625.19   0.83824592 
      95         0.95    341.49012   -405346.63    4423.8681   -400922.76    101696.49    122626.16    0.8382393 
      96         0.96    342.36291    -405359.4    4435.1747   -400924.22    101726.31    122627.14    0.8382326 
      97         0.97    343.24348   -405372.38    4446.5821    -400925.8    101757.15    122628.13   0.83822583 
      98         0.98    344.13177   -405385.58    4458.0896   -400927.49    101789.02    122629.13   0.83821899 
      99         0.99    345.02773   -405398.78    4469.6964   -400929.08    101821.81    122630.14   0.83821208 
     100            1    345.93131   -405412.01    4481.4019   -400930.61    101854.35    122631.16    0.8382051 
     101         1.01    346.84245   -405425.43    4493.2054   -400932.22    101888.83    122632.19   0.83819805 
     102         1.02     347.7611   -405438.98    4505.1062   -400933.88    101924.05    122633.24   0.83819092 
     103         1.03    348.68719   -405452.79    4517.1032   -400935.69    101959.86    122634.29   0.83818373 
     104         1.04    349.62066   -405466.57     4529.196   -400937.37    101996.21    122635.35   0.83817647 
     105         1.05     350.5615   -405480.41    4541.3842   -400939.03    102033.87    122636.42   0.83816913 
     106         1.06    351.50964   -405494.37    4553.6669    -400940.7    102072.38    122637.51   0.83816173 
     107         1.07    352.46501   -405508.53    4566.0434   -400942.49    102112.01     122638.6   0.83815425 
     108         1.08    353.42757   -405522.71     4578.513    -400944.2     102151.5    122639.71   0.83814671 
     109         1.09    354.39726   -405537.02    4591.0749   -400945.95    102193.03    122640.82   0.83813909 
     110          1.1      355.374   -405551.51    4603.7282   -400947.78    102235.46    122641.95    0.8381314 
     111         1.11    356.35775   -405566.05    4616.4723   -400949.58    102278.25    122643.08   0.83812364 
     112         1.12    357.34844    -405580.7    4629.3063    -400951.4    102321.78    122644.23   0.83811581 
     113         1.13    358.34603   -405595.46    4642.2296   -400953.24    102366.25    122645.38   0.83810791 
     114         1.14    359.35045   -405610.33    4655.2415   -400955.09    102411.69    122646.55   0.83809994 
     115         1.15    360.36163   -405625.45     4668.341   -400957.11     102458.2    122647.73    0.8380919 
     116         1.16    361.37949   -405640.64     4681.527   -400959.12    102505.51    122648.91   0.83808379 
     117         1.17      362.404   -405655.87     4694.799   -400961.07    102554.24    122650.11    0.8380756 
     118         1.18    363.43511   -405671.21    4708.1567   -400963.06    102602.36    122651.32   0.83806735 
     119         1.19    364.47275   -405686.78    4721.5988   -400965.18       102652    122652.54   0.83805902 
     120          1.2    365.51686   -405702.16    4735.1249   -400967.04    102702.05    122653.77   0.83805062 
     121         1.21    366.56741   -405717.89    4748.7344   -400969.16     102753.1    122655.01   0.83804215 
     122         1.22    367.62431   -405733.74    4762.4261   -400971.31    102804.55    122656.26   0.83803361 
     123         1.23     368.6875   -405749.47    4776.1993   -400973.27    102856.86    122657.52     0.838025 
     124         1.24    369.75693   -405765.51    4790.0533   -400975.46    102910.33    122658.79   0.83801632 
     125         1.25    370.83254   -405781.68    4803.9874   -400977.69    102964.53    122660.07   0.83800757 
     126         1.26    371.91431    -405797.7    4818.0013    -400979.7    103019.38    122661.36   0.83799874 
     127         1.27    373.00219    -405813.9    4832.0944   -400981.81    103074.97    122662.66   0.83798985 
     128         1.28    374.09609   -405830.31    4846.2654   -400984.04    103130.83    122663.98   0.83798088 
     129         1.29    375.19595   -405846.69    4860.5137   -400986.18    103187.22     122665.3   0.83797184 
     130          1.3    376.30174   -405863.19    4874.8387   -400988.35    103244.64    122666.63   0.83796273 
     131         1.31     377.4134   -405879.74    4889.2398    -400990.5    103301.83    122667.98   0.83795355 
     132         1.32    378.53086   -405896.48    4903.7161   -400992.77    103359.53    122669.33   0.83794429 
     133         1.33    379.65407   -405913.26    4918.2667   -400994.99    103417.69     122670.7   0.83793497 
     134         1.34    380.78295   -405930.18     4932.891   -400997.29     103476.5    122672.07   0.83792557 
     135         1.35    381.91746   -405947.16    4947.5881   -400999.57    103535.38    122673.46    0.8379161 
     136         1.36    383.05757   -405964.12    4962.3578   -401001.76     103595.1    122674.85   0.83790656 
     137         1.37    384.20325   -405981.16    4977.1997   -401003.96    103655.05    122676.26   0.83789695 
     138         1.38    385.35441   -405998.43    4992.1124   -401006.32    103715.54    122677.68   0.83788727 
     139         1.39    386.51099   -406015.61    5007.0954   -401008.52     103776.3    122679.11   0.83787751 
     140          1.4    387.67292   -406033.25    5022.1478   -401011.11    103837.51    122680.55   0.83786769 
     141         1.41    388.84015   -406050.79    5037.2687   -401013.52    103899.05       122682   0.83785779 
     142         1.42    390.01263   -406068.27    5052.4578   -401015.82    103961.05    122683.46   0.83784782 
     143         1.43    391.19033   -406085.94    5067.7145   -401018.22    104023.69    122684.93   0.83783777 
     144         1.44    392.37319   -406103.82     5083.038   -401020.79     104086.5    122686.41   0.83782766 
     145         1.45    393.56112   -406121.71    5098.4271   -401023.28    104149.59     122687.9   0.83781747 
     146         1.46    394.75408   -406139.63    5113.8814   -401025.75    104212.26     122689.4   0.83780721 
     147         1.47      395.952   -406157.62       5129.4   -401028.22     104275.2    122690.91   0.83779688 
     148         1.48    397.15486   -406175.67    5144.9825   -401030.69    104338.29    122692.44   0.83778648 
     149         1.49    398.36261   -406193.65    5160.6285   -401033.02    104401.36    122693.97     0.837776 
     150          1.5    399.57523   -406211.75    5176.3375   -401035.42    104464.73    122695.52   0.83776546 
     151         1.51    400.79265   -406230.03    5192.1087   -401037.92    104528.14    122697.07   0.83775484 
     152         1.52    402.01483    -406248.3    5207.9415   -401040.35    104590.87    122698.64   0.83774415 
     153         1.53     403.2417   -406266.83    5223.8351      -401043    104654.38    122700.21   0.83773338 
     154         1.54    404.47318   -406285.38    5239.7885   -401045.59    104717.01     122701.8   0.83772255 
     155         1.55    405.70923   -406303.93     5255.801   -401048.13    104780.18     122703.4   0.83771164 
     156         1.56    406.94981    -406322.6    5271.8723   -401050.73     104843.6    122705.01   0.83770066 
     157         1.57    408.19489    -406341.4    5288.0017    -401053.4    104907.61    122706.63    0.8376896 
     158         1.58    409.44441   -406360.18    5304.1887   -401055.99    104970.35    122708.26   0.83767847 
     159         1.59    410.69829   -406379.22    5320.4323   -401058.79    105032.81     122709.9   0.83766728 
     160          1.6    411.95648    -406398.2    5336.7317   -401061.47    105095.14    122711.55     0.837656 
     161         1.61    413.21895   -406417.16    5353.0864   -401064.07     105157.4    122713.21   0.83764466 
     162         1.62    414.48564   -406436.28    5369.4959   -401066.78    105219.43    122714.88   0.83763324 
     163         1.63    415.75653   -406455.38    5385.9597   -401069.42    105281.35    122716.57   0.83762175 
     164         1.64    417.03157   -406474.56    5402.4774   -401072.08    105343.56    122718.26   0.83761019 
     165         1.65     418.3107   -406493.93     5419.048   -401074.88    105405.13    122719.97   0.83759856 
     166         1.66    419.59385   -406513.42    5435.6707   -401077.75    105466.35    122721.68   0.83758685 
     167         1.67    420.88098   -406532.86     5452.345   -401080.51    105527.47    122723.41   0.83757507 
     168         1.68    422.17207    -406552.4    5469.0705   -401083.33    105588.76    122725.14   0.83756322 
     169         1.69    423.46705   -406572.04    5485.8464   -401086.19    105650.16    122726.89   0.83755129 
     170          1.7    424.76587   -406591.74    5502.6722   -401089.06    105710.63    122728.65   0.83753929 
     171         1.71     426.0685   -406611.64    5519.5472   -401092.09    105771.06    122730.42   0.83752722 
     172         1.72     427.3749   -406631.52     5536.471   -401095.05    105831.34     122732.2   0.83751507 
     173         1.73      428.685   -406651.43    5553.4429   -401097.99    105889.99    122733.99   0.83750285 
     174         1.74    429.99878   -406671.35    5570.4623   -401100.89    105949.28    122735.79   0.83749056 
     175         1.75    431.31619   -406691.34    5587.5289   -401103.81    106008.18     122737.6    0.8374782 
     176         1.76    432.63722   -406711.37    5604.6423   -401106.73    106067.66    122739.42   0.83746576 
     177         1.77    433.96182    -406731.5     5621.802   -401109.69    106126.34    122741.26   0.83745325 
     178         1.78    435.28992   -406751.74    5639.0071   -401112.73     106184.6     122743.1   0.83744066 
     179         1.79    436.62144   -406772.19    5656.2564   -401115.93    106243.49    122744.96   0.83742801 
     180          1.8    437.95636   -406792.61    5673.5496   -401119.06    106301.05    122746.82   0.83741528 
     181         1.81    439.29466   -406813.08    5690.8868   -401122.19    106358.67     122748.7   0.83740247 
     182         1.82    440.63633   -406833.47    5708.2676    -401125.2    106416.63    122750.59   0.83738959 
     183         1.83    441.98133   -406854.12    5725.6915   -401128.43    106473.11    122752.49   0.83737664 
     184         1.84    443.32959   -406874.69    5743.1577   -401131.54    106529.73     122754.4   0.83736362 
     185         1.85    444.68109   -406895.32    5760.6658   -401134.65    106585.19    122756.32   0.83735052 
     186         1.86    446.03578    -406916.1    5778.2154   -401137.88    106641.46    122758.25   0.83733735 
     187         1.87    447.39364   -406936.87    5795.8058   -401141.06    106695.74    122760.19   0.83732411 
     188         1.88    448.75459   -406957.72    5813.4365   -401144.29     106750.4    122762.14   0.83731079 
     189         1.89    450.11863   -406978.59     5831.107   -401147.49    106804.19    122764.11    0.8372974 
     190          1.9    451.48568   -406999.72    5848.8167    -401150.9    106858.57    122766.08   0.83728393 
     191         1.91    452.85571   -407020.85    5866.5648   -401154.28    106911.67    122768.06   0.83727039 
     192         1.92    454.22868   -407041.92    5884.3511   -401157.57    106965.14    122770.06   0.83725678 
     193         1.93    455.60457   -407063.03    5902.1752   -401160.85    107017.56    122772.07   0.83724309 
     194         1.94    456.98333   -407084.31    5920.0365   -401164.27    107069.58    122774.09   0.83722933 
     195         1.95    458.36492   -407105.48    5937.9345   -401167.54    107120.02    122776.11    0.8372155 
     196         1.96     459.7493   -407126.87    5955.8685      -401171    107171.04    122778.15   0.83720159 
     197         1.97    461.13644   -407148.26    5973.8383   -401174.42    107222.55     122780.2   0.83718761 
     198         1.98    462.52631   -407169.63    5991.8436   -401177.79    107272.89    122782.27   0.83717355 
     199         1.99    463.91888   -407190.98    6009.8837    -401181.1    107322.51    122784.34   0.83715943 
     200            2     465.3141   -407212.48    6027.9583   -401184.53    107371.72    122786.42   0.83714522 
     201         2.01    466.71196   -407233.99     6046.067   -401187.93    107419.43    122788.52   0.83713095 
     202         2.02    468.11241    -407255.6    6064.2092   -401191.39    107467.38    122790.62    0.8371166 
     203         2.03     469.5154   -407277.22    6082.3845   -401194.83    107514.77    122792.74   0.83710217 
     204         2.04     470.9209   -407298.98    6100.5921   -401198.39    107562.22    122794.86   0.83708767 
     205         2.05    472.32886    -407320.7    6118.8316   -401201.87    107609.19       122797    0.8370731 
     206         2.06    473.73927   -407342.52     6137.103   -401205.42    107655.59    122799.15   0.83705845 
     207         2.07    475.15208   -407364.44    6155.4054   -401209.04     107700.9    122801.31   0.83704373 
     208         2.08    476.56725   -407386.43    6173.7383   -401212.69    107746.51    122803.48   0.83702894 
     209         2.09    477.98473   -407408.36    6192.1013   -401216.26    107790.57    122805.66   0.83701407 
     210          2.1     479.4045   -407430.35    6210.4937   -401219.85    107833.59    122807.85   0.83699913 
     211         2.11    480.82651   -407452.38    6228.9154   -401223.46    107875.78    122810.06   0.83698411 
     212         2.12    482.25074   -407474.51    6247.3657   -401227.14    107918.13    122812.27   0.83696902 
     213         2.13    483.67714   -407496.73    6265.8441   -401230.89    107959.88     122814.5   0.83695385 
     214         2.14    485.10567   -407518.86    6284.3501   -401234.51    108001.28    122816.73   0.83693862 
     215         2.15     486.5363   -407541.03    6302.8833   -401238.15    108042.06    122818.98    0.8369233 
     216         2.16      487.969   -407563.56    6321.4434   -401242.12    108083.63    122821.24   0.83690791 
     217         2.17    489.40371   -407586.03    6340.0295      -401246    108123.17    122823.51   0.83689245 
     218         2.18     490.8404   -407608.44    6358.6413    -401249.8    108162.06    122825.79   0.83687692 
     219         2.19    492.27905   -407630.85    6377.2785   -401253.58    108200.07    122828.08   0.83686131 
     220          2.2    493.71965   -407653.31    6395.9408   -401257.37    108237.86    122830.38   0.83684562 
     221         2.21    495.16212   -407675.89    6414.6274   -401261.27    108274.74    122832.69   0.83682986 
     222         2.22    496.60641   -407698.61    6433.3376   -401265.27    108311.42    122835.02   0.83681403 
     223         2.23     498.0525    -407721.3    6452.0711   -401269.23    108347.31    122837.35   0.83679812 
     224         2.24    499.50038   -407743.98    6470.8278   -401273.16    108382.26     122839.7   0.83678214 
     225         2.25    500.95002   -407766.66    6489.6073   -401277.06    108415.52    122842.06   0.83676609 
     226         2.26    502.40138   -407789.43    6508.4091   -401281.03    108449.07    122844.42   0.83674996 
     227         2.27    503.85442   -407812.24    6527.2327   -401285.01    108482.28     122846.8   0.83673375 
     228         2.28    505.30911   -407835.06    6546.0776   -401288.98    108515.05    122849.19   0.83671747 
     229         2.29    506.76541   -407858.02    6564.9435   -401293.08    108546.82    122851.59   0.83670112 
     230          2.3     508.2233   -407880.92    6583.8298   -401297.09    108577.93    122854.01   0.83668469 
     231         2.31    509.68275    -407903.9    6602.7364   -401301.16    108608.22    122856.43   0.83666819 
     232         2.32    511.14373   -407926.97    6621.6628    -401305.3    108638.32    122858.86   0.83665162 
     233         2.33    512.60617   -407950.09    6640.6082   -401309.48    108667.28    122861.31   0.83663497 
     234         2.34    514.07005   -407973.15    6659.5721   -401313.58    108694.98    122863.76   0.83661824 
     235         2.35    515.53534   -407996.25    6678.5543    -401317.7    108723.15    122866.23   0.83660144 
     236         2.36    517.00203   -408019.51    6697.5547   -401321.95    108750.89    122868.71   0.83658457 
     237         2.37    518.47008    -408042.8    6716.5728   -401326.23    108778.84     122871.2   0.83656762 
     238         2.38    519.93946   -408065.97     6735.608   -401330.37    108804.36     122873.7    0.8365506 
     239         2.39    521.41015   -408089.23    6754.6602   -401334.57    108829.13    122876.21    0.8365335 
     240          2.4    522.88211   -408112.75    6773.7288   -401339.03    108854.35    122878.73   0.83651633 
     241         2.41    524.35532   -408136.09    6792.8137   -401343.27    108877.89    122881.26   0.83649909 
     242         2.42    525.82977   -408159.59    6811.9146   -401347.67    108901.75    122883.81   0.83648177 
     243         2.43    527.30543   -408183.04    6831.0312      -401352     108925.7    122886.36   0.83646438 
     244         2.44    528.78228   -408206.52    6850.1631   -401356.36    108948.34    122888.93   0.83644691 
     245         2.45    530.26026   -408230.09    6869.3098   -401360.78    108971.04    122891.51   0.83642936 
     246         2.46    531.73936   -408253.56     6888.471   -401365.08    108992.46     122894.1   0.83641175 
     247         2.47    533.21957    -408277.2    6907.6466   -401369.55    109014.16     122896.7   0.83639406 
     248         2.48    534.70086   -408300.89    6926.8361   -401374.06    109034.76    122899.31   0.83637629 
     249         2.49     536.1832   -408324.37    6946.0392   -401378.33    109054.62    122901.93   0.83635845 
     250          2.5    537.66656   -408348.15    6965.2554   -401382.89    109073.93    122904.56   0.83634054 
     251         2.51     539.1509   -408371.74    6984.4845   -401387.26    109092.96     122907.2   0.83632255 
     252         2.52    540.63625   -408395.37    7003.7266   -401391.65    109112.07    122909.86   0.83630448 
     253         2.53    542.12257   -408419.13    7022.9814   -401396.15    109130.32    122912.52   0.83628635 
     254         2.54    543.60986   -408442.87    7042.2485   -401400.63       109148     122915.2   0.83626814 
     255         2.55    545.09807   -408466.66    7061.5277   -401405.13     109165.7    122917.89   0.83624985 
     256         2.56     546.5872   -408490.47    7080.8188   -401409.66    109182.81    122920.59   0.83623149 
     257         2.57    548.07722   -408514.47    7100.1214   -401414.35    109200.16     122923.3   0.83621306 
     258         2.58    549.56811   -408538.51    7119.4353   -401419.08    109217.15    122926.02   0.83619455 
     259         2.59    551.05986   -408562.52    7138.7603   -401423.76    109233.39    122928.75   0.83617596 
     260          2.6    552.55246   -408586.56    7158.0963   -401428.47    109249.02    122931.49   0.83615731 
     261         2.61    554.04589   -408610.61    7177.4431   -401433.17    109264.74    122934.25   0.83613857 
     262         2.62    555.54013   -408634.74    7196.8004   -401437.94    109278.92    122937.01   0.83611977 
     263         2.63    557.03516   -408658.88    7216.1679   -401442.71     109293.2    122939.79   0.83610089 
     264         2.64    558.53096   -408683.09    7235.5455   -401447.55    109307.22    122942.57   0.83608193 
     265         2.65    560.02752   -408707.32    7254.9328   -401452.39    109320.76    122945.37   0.83606291 
     266         2.66    561.52482    -408731.5    7274.3297   -401457.17    109333.76    122948.18    0.8360438 
     267         2.67    563.02285   -408755.72    7293.7361   -401461.98    109346.26       122951   0.83602463 
     268         2.68     564.5216   -408779.91    7313.1518   -401466.76    109358.67    122953.83   0.83600538 
     269         2.69    566.02105   -408804.24    7332.5765   -401471.66    109370.27    122956.68   0.83598605 
     270          2.7     567.5212   -408828.55    7352.0104   -401476.54     109381.8    122959.53   0.83596665 
     271         2.71    569.02204   -408852.89    7371.4532   -401481.43    109392.48    122962.39   0.83594718 
     272         2.72    570.52354   -408877.36    7390.9046   -401486.45    109403.14    122965.27   0.83592763 
     273         2.73    572.02568   -408901.81    7410.3642   -401491.44    109412.71    122968.16   0.83590801 
     274         2.74    573.52846   -408926.24     7429.832   -401496.41    109421.89    122971.05   0.83588831 
     275         2.75    575.03184   -408950.78    7449.3078   -401501.48    109430.64    122973.96   0.83586854 
     276         2.76    576.53582   -408975.28    7468.7913   -401506.49    109438.72    122976.88    0.8358487 
     277         2.77     578.0404   -408999.75    7488.2824   -401511.47    109446.07    122979.81   0.83582878 
     278         2.78    579.54555   -409024.35    7507.7811   -401516.57    109452.82    122982.75   0.83580879 
     279         2.79    581.05126   -409049.01    7527.2869   -401521.72    109458.66    122985.71   0.83578872 
     280          2.8    582.55751   -409073.62    7546.7998   -401526.82    109464.34    122988.67   0.83576858 
     281         2.81    584.06428   -409098.32    7566.3194      -401532    109469.76    122991.64   0.83574837 
     282         2.82    585.57156   -409123.03    7585.8456   -401537.19     109474.5    122994.63   0.83572808 
     283         2.83    587.07935   -409147.73    7605.3784   -401542.35    109478.48    122997.63   0.83570772 
     284         2.84    588.58763   -409172.46    7624.9176   -401547.54     109482.6    123000.63   0.83568729 
     285         2.85    590.09639   -409197.26     7644.463    -401552.8    109487.03    123003.65   0.83566678 
     286         2.86    591.60562      -409222    7664.0145   -401557.98    109489.76    123006.68   0.83564619 
     287         2.87     593.1153   -409246.84    7683.5718   -401563.27    109492.16    123009.72   0.83562554 
     288         2.88    594.62541   -409271.83    7703.1347    -401568.7    109493.31    123012.77   0.83560481 
     289         2.89    596.13594   -409296.66     7722.703   -401573.96    109494.05    123015.84     0.835584 
     290          2.9    597.64688   -409321.56    7742.2766   -401579.29    109493.87    123018.91   0.83556312 
     291         2.91    599.15823   -409346.53    7761.8554   -401584.67    109492.99       123022   0.83554217 
     292         2.92    600.66996   -409371.53    7781.4394   -401590.09    109491.65    123025.09   0.83552115 
     293         2.93    602.18207    -409396.6    7801.0281   -401595.57    109489.92     123028.2   0.83550005 
     294         2.94    603.69454   -409421.65    7820.6215   -401601.03    109487.13    123031.32   0.83547888 
     295         2.95    605.20736   -409446.68    7840.2195   -401606.46    109483.67    123034.44   0.83545763 
     296         2.96    606.72052   -409471.82     7859.822      -401612    109480.05    123037.58   0.83543631 
     297         2.97    608.23403   -409496.92    7879.4288   -401617.49    109475.75    123040.74   0.83541492 
     298         2.98    609.74783   -409522.17    7899.0396   -401623.13    109471.49     123043.9   0.83539345 
     299         2.99    611.26195   -409547.36    7918.6543    -401628.7    109466.11    123047.07   0.83537191 
     300            3    612.77637   -409572.43     7938.273   -401634.15     109458.9    123050.25    0.8353503 
     301         3.01    614.29108   -409597.58    7957.8955   -401639.69    109451.74    123053.45   0.83532861 
     302         3.02    615.80607   -409622.71    7977.5216   -401645.19    109444.13    123056.65   0.83530685 
     303         3.03    617.32133   -409648.05    7997.1512    -401650.9    109436.19    123059.87   0.83528502 
     304         3.04    618.83686   -409673.49    8016.7842    -401656.7    109427.26     123063.1   0.83526311 
     305         3.05    620.35262   -409698.84    8036.4203   -401662.42    109417.85    123066.34   0.83524113 
     306         3.06    621.86864   -409724.12    8056.0598   -401668.06    109407.79    123069.59   0.83521908 
     307         3.07    623.38493   -409749.46    8075.7028   -401673.76    109397.61    123072.85   0.83519696 
     308         3.08    624.90149   -409774.83    8095.3491   -401679.48    109386.37    123076.12   0.83517476 
     309         3.09    626.41829   -409800.22    8114.9987   -401685.22    109375.05     123079.4   0.83515248 
     310          3.1    627.93537   -409825.64    8134.6518   -401690.99    109363.39    123082.69   0.83513014 
     311         3.11     629.4527   -409851.18    8154.3082   -401696.87    109350.63       123086   0.83510772 
     312         3.12    630.97026    -409876.7    8173.9676   -401702.73    109338.28    123089.31   0.83508523 
     313         3.13    632.48806   -409902.15    8193.6302   -401708.52    109324.71    123092.64   0.83506267 
     314         3.14     634.0061   -409927.75    8213.2957   -401714.46    109310.38    123095.97   0.83504003 
     315         3.15    635.52436    -409953.3    8232.9642   -401720.34    109294.94    123099.32   0.83501732 
     316         3.16    637.04286   -409978.87    8252.6357   -401726.23    109279.44    123102.68   0.83499454 
     317         3.17    638.56159   -410004.42    8272.3102   -401732.11    109263.44    123106.05   0.83497169 
     318         3.18    640.08054      -410030    8291.9876   -401738.01    109247.38    123109.43   0.83494876 
     319         3.19    641.59971    -410055.6     8311.668   -401743.93    109231.41    123112.82   0.83492576 
     320          3.2    643.11911   -410081.27    8331.3512   -401749.92    109213.69    123116.22   0.83490269 
     321         3.21    644.63874   -410106.97    8351.0373   -401755.93    109196.08    123119.64   0.83487954 
     322         3.22     646.1586   -410132.73    8370.7264   -401762.01    109177.67    123123.06   0.83485632 
     323         3.23    647.67868   -410158.39    8390.4185   -401767.97    109158.12     123126.5   0.83483304 
     324         3.24    649.19896   -410184.28    8410.1132   -401774.17    109138.16    123129.94   0.83480967 
     325         3.25    650.71946   -410210.06    8429.8106   -401780.25    109117.16     123133.4   0.83478624 
     326         3.26    652.24016   -410235.99    8449.5107   -401786.48       109096    123136.86   0.83476273 
     327         3.27    653.76105   -410261.91    8469.2132   -401792.69    109074.84    123140.34   0.83473915 
     328         3.28    655.28214   -410287.88    8488.9183   -401798.96    109053.11    123143.83    0.8347155 
     329         3.29    656.80342   -410313.86    8508.6259   -401805.23    109030.38    123147.33   0.83469178 
     330          3.3     658.3249    -410339.7    8528.3361   -401811.37    109007.88    123150.84   0.83466799 
     331         3.31    659.84657   -410365.65    8548.0487   -401817.61    108984.38    123154.36   0.83464412 
     332         3.32    661.36842   -410391.53    8567.7637   -401823.77    108960.32     123157.9   0.83462018 
     333         3.33    662.89047   -410417.49    8587.4812   -401830.01    108935.66    123161.44   0.83459617 
     334         3.34    664.41273   -410443.55    8607.2014   -401836.34    108910.27    123164.99   0.83457209 
     335         3.35     665.9352   -410469.59    8626.9244   -401842.67    108884.19    123168.56   0.83454794 
     336         3.36    667.45788    -410495.7    8646.6501   -401849.05    108857.55    123172.13   0.83452371 
     337         3.37    668.98076   -410521.74    8666.3785   -401855.36    108830.08    123175.72   0.83449941 
     338         3.38    670.50386   -410547.85    8686.1097   -401861.74    108801.92    123179.32   0.83447504 
     339         3.39    672.02717   -410574.02    8705.8435   -401868.18    108773.35    123182.92    0.8344506 
     340          3.4    673.55066   -410600.18    8725.5797    -401874.6     108744.5    123186.54   0.83442609 
     341         3.41    675.07435   -410626.28    8745.3185   -401880.96    108715.12    123190.17   0.83440151 
     342         3.42    676.59823   -410652.44    8765.0598   -401887.38    108684.95    123193.81   0.83437686 
     343         3.43    678.12231    -410678.8    8784.8036      -401894    108654.13    123197.46   0.83435213 
     344         3.44    679.64659   -410705.07    8804.5501   -401900.52    108622.77    123201.12   0.83432734 
     345         3.45    681.17107   -410731.43    8824.2991   -401907.13    108590.63     123204.8   0.83430247 
     346         3.46    682.69574   -410757.78    8844.0506   -401913.73    108558.17    123208.48   0.83427753 
     347         3.47    684.22061    -410784.2    8863.8046    -401920.4    108525.55    123212.17   0.83425252 
     348         3.48    685.74567   -410810.51    8883.5612   -401926.95    108491.78    123215.88   0.83422744 
     349         3.49    687.27093   -410836.89    8903.3203   -401933.57     108458.2    123219.59   0.83420229 
     350          3.5     688.7964   -410863.25    8923.0821   -401940.17    108423.85    123223.32   0.83417707 
     351         3.51    690.32206   -410889.61    8942.8465   -401946.76    108388.36    123227.05   0.83415178 
     352         3.52    691.84791   -410915.97    8962.6132   -401953.35    108352.77     123230.8   0.83412641 
     353         3.53    693.37395    -410942.4    8982.3825   -401960.02    108316.24    123234.56   0.83410098 
     354         3.54    694.90017   -410968.82    9002.1541   -401966.66    108278.76    123238.33   0.83407548 
     355         3.55    696.42658   -410995.34    9021.9281   -401973.41    108240.98     123242.1    0.8340499 
     356         3.56    697.95315    -411021.8    9041.7042    -401980.1    108202.69    123245.89   0.83402426 
     357         3.57    699.47989   -411048.32    9061.4825   -401986.84    108163.82    123249.69   0.83399855 
     358         3.58    701.00678   -411074.88    9081.2627   -401993.62    108124.73     123253.5   0.83397276 
     359         3.59    702.53382   -411101.38     9101.045   -402000.34    108084.29    123257.33   0.83394691 
     360          3.6    704.06105   -411127.93    9120.8296    -402007.1    108043.99    123261.16   0.83392098 
     361         3.61    705.58844   -411154.65    9140.6164   -402014.04    108003.19       123265   0.83389499 
     362         3.62      707.116   -411181.23    9160.4053   -402020.82    107960.41    123268.85   0.83386892 
     363         3.63    708.64372   -411207.94    9180.1963   -402027.74    107917.99    123272.72   0.83384279 
     364         3.64    710.17159   -411234.78    9199.9892   -402034.79    107875.94    123276.59   0.83381659 
     365         3.65     711.6996   -411261.54    9219.7839   -402041.75    107831.82    123280.47   0.83379031 
     366         3.66    713.22775   -411288.36    9239.5806   -402048.78    107787.86    123284.37   0.83376397 
     367         3.67    714.75606   -411315.07    9259.3791   -402055.69    107743.24    123288.28   0.83373756 
     368         3.68    716.28449   -411342.03    9279.1794   -402062.85    107698.07    123292.19   0.83371108 
     369         3.69    717.81304   -411368.87    9298.9811   -402069.89    107652.16    123296.12   0.83368453 
     370          3.7     719.3417   -411395.66    9318.7843   -402076.88    107605.53    123300.05   0.83365791 
     371         3.71    720.87047    -411422.4    9338.5889   -402083.81    107558.26       123304   0.83363122 
     372         3.72    722.39935   -411449.37     9358.395   -402090.97    107510.47    123307.96   0.83360446 
     373         3.73    723.92835   -411476.17    9378.2025   -402097.96    107462.29    123311.93   0.83357764 
     374         3.74    725.45744   -411503.12    9398.0113   -402105.11    107413.28    123315.91   0.83355074 
     375         3.75    726.98663   -411530.01    9417.8214   -402112.18     107363.6     123319.9   0.83352378 
     376         3.76    728.51592      -411557    9437.6327   -402119.37    107313.58     123323.9   0.83349675 
     377         3.77     730.0453   -411584.02    9457.4452   -402126.58    107262.81    123327.91   0.83346965 
     378         3.78    731.57474   -411610.75    9477.2585   -402133.49     107211.5    123331.93   0.83344248 
     379         3.79    733.10422   -411637.67    9497.0723    -402140.6    107159.46    123335.96   0.83341524 
     380          3.8    734.63376   -411664.64    9516.8868   -402147.76    107106.57       123340   0.83338794 
     381         3.81    736.16335   -411691.66     9536.702   -402154.96    107053.48    123344.05   0.83336056 
     382         3.82    737.69296   -411718.84    9556.5176   -402162.33    106999.34    123348.11   0.83333312 
     383         3.83    739.22258   -411745.81    9576.3333   -402169.48    106945.11    123352.18   0.83330561 
     384         3.84    740.75225   -411773.07    9596.1494   -402176.92    106890.82    123356.26   0.83327804 
     385         3.85    742.28176   -411800.27    9615.9636    -402184.3    106822.09    123360.36   0.83325039 
     386         3.86    743.81108   -411827.54    9635.7753   -402191.77     106764.5    123364.46   0.83322268 
     387         3.87    745.34035   -411854.77    9655.5865   -402199.18    106705.98    123368.57    0.8331949 
     388         3.88    746.86961   -411882.02    9675.3974   -402206.62    106648.04     123372.7   0.83316705 
     389         3.89    748.39885   -411909.27    9695.2082   -402214.06    106589.46    123376.83   0.83313914 
     390          3.9    749.92807    -411936.5    9715.0185   -402221.48    106529.33    123380.97   0.83311116 
     391         3.91    751.45723    -411963.7    9734.8281   -402228.87    106468.89    123385.13   0.83308311 
     392         3.92    752.98632   -411991.03    9754.6369   -402236.39    106406.07    123389.29   0.83305499 
     393         3.93    754.51536   -412018.41     9774.445   -402243.97    106344.78    123393.47   0.83302681 
     394         3.94    756.04433    -412045.8    9794.2523   -402251.55    106282.81    123397.65   0.83299856 
     395         3.95    757.57323   -412073.21    9814.0585   -402259.16    106220.82    123401.85   0.83297024 
     396         3.96    759.10205   -412100.55    9833.8637   -402266.69    106157.35    123406.05   0.83294186 
     397         3.97    760.63075   -412127.95    9853.6675   -402274.29    106093.87    123410.27   0.83291341 
     398         3.98    762.15935   -412155.37    9873.4699    -402281.9    106029.13    123414.49    0.8328849 
     399         3.99    763.68782   -412182.84    9893.2707   -402289.57    105963.58    123418.73   0.83285632 
     400            4    765.21601   -412210.38    9913.0677   -402297.32    105884.29    123422.97   0.83282767 
     401         4.01    766.74386   -412237.83    9932.8604   -402304.97    105815.88    123427.23   0.83279896 
     402         4.02    768.27134    -412265.4    9952.6482   -402312.76    105734.59    123431.49   0.83277018 
     403         4.03    769.79843    -412292.9    9972.4312   -402320.47    105663.03    123435.77   0.83274133 
     404         4.04    771.32529   -412320.41    9992.2109    -402328.2    105591.89    123440.05   0.83271242 
     405         4.05    772.85189   -412347.97    10011.987   -402335.98    105519.64    123444.35   0.83268345 
     406         4.06    774.37823   -412375.36    10031.761    -402343.6     105448.1    123448.65   0.83265441 
     407         4.07    775.90433   -412402.99    10051.531   -402351.46    105375.95    123452.97    0.8326253 
     408         4.08    777.42997   -412430.59    10071.295    -402359.3    105288.99    123457.29   0.83259613 
     409         4.09    778.95511   -412458.13    10091.052   -402367.07    105212.95    123461.63   0.83256689 
     410          4.1    780.47991   -412485.57    10110.805   -402374.76    105136.73    123465.98   0.83253759 
     411         4.11     782.0044   -412513.11    10130.555   -402382.56    105061.28    123470.33   0.83250823 
     412         4.12    783.52856   -412540.63    10150.299   -402390.33    104984.46     123474.7    0.8324788 
     413         4.13    785.05237   -412568.24     10170.04    -402398.2    104907.84    123479.07    0.8324493 
     414         4.14    786.57583   -412596.08    10189.776    -402406.3    104829.92    123483.46   0.83241974 
     415         4.15    788.09888    -412623.7    10209.506   -402414.19    104752.06    123487.85   0.83239012 
     416         4.16    789.62153   -412651.35    10229.231   -402422.12    104673.05    123492.25   0.83236043 
     417         4.17    791.14376   -412678.83    10248.951   -402429.88    104592.37    123496.67   0.83233068 
     418         4.18    792.66557   -412706.45    10268.666   -402437.79    104512.07    123501.09   0.83230086 
     419         4.19    794.18698   -412734.07    10288.375    -402445.7    104430.89    123505.53   0.83227098 
     420          4.2    795.70796   -412761.72    10308.079   -402453.64     104348.9    123509.97   0.83224104 
     421         4.21     797.2285   -412789.42    10327.777   -402461.65    104266.31    123514.42   0.83221104 
     422         4.22     798.7486   -412817.04    10347.469   -402469.57    104183.05    123518.89   0.83218097 
     423         4.23    800.26825   -412844.71    10367.155   -402477.55    104098.71    123523.36   0.83215083 
     424         4.24    801.78734   -412872.53    10386.835   -402485.69    104006.67    123527.84   0.83212064 
     425         4.25    803.30584   -412900.31    10406.506    -402493.8    103919.31    123532.33   0.83209038 
     426         4.26    804.82382   -412928.04    10426.171   -402501.87    103832.51    123536.83   0.83206006 
     427         4.27    806.34129   -412955.67    10445.829   -402509.84    103745.31    123541.35   0.83202968 
     428         4.28    807.85823   -412983.34    10465.481   -402517.86    103657.27    123545.87   0.83199923 
     429         4.29     809.3746    -413010.9    10485.125   -402525.77    103568.17     123550.4   0.83196872 
     430          4.3    810.89038   -413038.72    10504.761   -402533.96    103474.54    123554.94   0.83193815 
     431         4.31    812.40555   -413066.27    10524.389   -402541.88    103384.17    123559.49   0.83190752 
     432         4.32    813.91996   -413094.15    10544.008   -402550.14    103279.19    123564.05   0.83187683 
     433         4.33    815.43357   -413121.89    10563.616   -402558.27     103185.7    123568.61   0.83184607 
     434         4.34    816.94639   -413149.84    10583.214   -402566.62    103075.73    123573.19   0.83181525 
     435         4.35    818.45846   -413177.61    10602.802   -402574.81    102979.59    123577.78   0.83178437 
     436         4.36     819.9699   -413205.36    10622.382   -402582.97    102884.03    123582.38   0.83175343 
     437         4.37    821.48068   -413233.16    10641.954   -402591.21    102788.53    123586.98   0.83172243 
     438         4.38    822.99074   -413260.84    10661.516   -402599.33    102690.54     123591.6   0.83169137 
     439         4.39    824.50009   -413288.61    10681.069   -402607.54    102593.96    123596.22   0.83166025 
     440          4.4    826.00874   -413316.61    10700.613   -402615.99    102497.02    123600.86   0.83162906 
     441         4.41    827.51636   -413344.58    10720.144   -402624.43    102369.83     123605.5   0.83159782 
     442         4.42     829.0229   -413372.35     10739.66   -402632.69    102267.89    123610.15   0.83156651 
     443         4.43    830.52864   -413400.07    10759.167    -402640.9    102166.39    123614.82   0.83153515 
     444         4.44    832.03361   -413427.86    10778.663    -402649.2    102064.65    123619.49   0.83150373 
     445         4.45     833.5378   -413455.76    10798.149   -402657.61     101962.4    123624.17   0.83147224 
     446         4.46    835.04122   -413483.51    10817.625   -402665.89    101859.44    123628.86    0.8314407 
     447         4.47    836.54371   -413511.44    10837.089   -402674.35    101742.12    123633.56   0.83140909 
     448         4.48    838.04521   -413539.26    10856.541   -402682.72    101634.85    123638.27   0.83137743 
     449         4.49    839.54585   -413567.09    10875.981    -402691.1    101529.14    123642.99   0.83134571 
     450          4.5    841.04566   -413594.92    10895.411   -402699.51    101422.32    123647.71   0.83131393 
     451         4.51    842.54464    -413622.7    10914.829   -402707.87    101315.68    123652.45   0.83128209 
     452         4.52     844.0428   -413650.57    10934.237   -402716.33    101209.65    123657.19   0.83125019 
     453         4.53    845.54001   -413678.44    10953.633   -402724.81    101088.93    123661.95   0.83121823 
     454         4.54    847.03611   -413706.36    10973.014   -402733.35    100969.19    123666.71   0.83118622 
     455         4.55    848.53125   -413734.19    10992.383    -402741.8    100858.76    123671.48   0.83115414 
     456         4.56    850.02548   -413762.06     11011.74   -402750.32    100747.66    123676.26   0.83112201 
     457         4.57     851.5188   -413789.79    11031.086   -402758.71    100636.42    123681.05   0.83108982 
     458         4.58    853.01122   -413817.65     11050.42   -402767.23    100525.07    123685.85   0.83105757 
     459         4.59    854.50274   -413845.42    11069.742   -402775.68    100412.86    123690.66   0.83102527 
     460          4.6    855.99333   -413873.22    11089.052   -402784.17    100300.23    123695.48   0.83099291 
     461         4.61      857.483   -413901.07     11108.35   -402792.72    100187.46     123700.3   0.83096049 
     462         4.62    858.97172   -413928.82    11127.636   -402801.19    100073.78    123705.14   0.83092801 
     463         4.63    860.45944   -413956.67    11146.908   -402809.76    99949.553    123709.98   0.83089548 
     464         4.64    861.94615   -413984.46    11166.168   -402818.29    99832.436    123714.84   0.83086289 
     465         4.65    863.43195   -414012.26    11185.416   -402826.84    99717.145     123719.7   0.83083024 
     466         4.66    864.91686   -414040.09    11204.652   -402835.44     99601.72    123724.57   0.83079754 
     467         4.67    866.40086   -414067.83    11223.877   -402843.96     99485.88    123729.45   0.83076478 
     468         4.68    867.88386   -414095.81    11243.089   -402852.72    99359.774    123734.33   0.83073197 
     469         4.69    869.36587   -414123.45    11262.287   -402861.17    99241.962    123739.23    0.8306991 
     470          4.7    870.84694   -414151.18    11281.474   -402869.71    99123.469    123744.13   0.83066618 
     471         4.71    872.32706   -414178.69    11300.649   -402878.04    99004.536    123749.05   0.83063319 
     472         4.72    873.80624   -414206.41    11319.811    -402886.6    98885.411    123753.97   0.83060016 
     473         4.73    875.28448   -414234.13    11338.961   -402895.17    98766.106     123758.9   0.83056707 
     474         4.74     876.7618   -414261.84    11358.099   -402903.74    98646.832    123763.84   0.83053392 
     475         4.75    878.23813   -414289.73    11377.224   -402912.51    98516.136    123768.79   0.83050072 
     476         4.76    879.71344   -414317.57    11396.336   -402921.24     98394.32    123773.74   0.83046747 
     477         4.77    881.18776   -414345.27    11415.435   -402929.83    98272.732    123778.71   0.83043416 
     478         4.78    882.66114   -414372.96    11434.522   -402938.44    98150.408    123783.68    0.8304008 
     479         4.79    884.13357   -414400.49    11453.597   -402946.89    98027.702    123788.66   0.83036738 
     480          4.8    885.60497   -414428.36    11472.659    -402955.7    97895.547    123793.65   0.83033391 
     481         4.81    887.07536   -414456.07    11491.707   -402964.37    97770.733    123798.65   0.83030039 
     482         4.82     888.5448   -414483.65    11510.743   -402972.91    97645.547    123803.66   0.83026681 
     483         4.83    890.01328   -414511.46    11529.767   -402981.69    97521.588    123808.67   0.83023318 
     484         4.84    891.48082   -414539.02    11548.778   -402990.24     97397.62    123813.69   0.83019949 
     485         4.85    892.94741   -414566.71    11567.777   -402998.94    97273.898    123818.72   0.83016576 
     486         4.86     894.4128   -414594.62    11586.761   -403007.86    97122.425    123823.76   0.83013197 
     487         4.87      895.877    -414622.3    11605.729   -403016.57    96994.277    123828.81   0.83009813 
     488         4.88    897.34025   -414649.92    11624.684   -403025.24    96867.255    123833.87   0.83006424 
     489         4.89    898.80243   -414677.71    11643.626   -403034.08    96727.465    123838.93   0.83003029 
     490          4.9    900.26356   -414705.43    11662.555   -403042.87    96599.399    123844.01    0.8299963 
     491         4.91    901.72355   -414733.26    11681.468   -403051.79      96447.3    123849.09   0.82996225 
     492         4.92    903.18238   -414760.88    11700.367   -403060.51    96317.112    123854.17   0.82992815 
     493         4.93    904.64025   -414788.56    11719.253   -403069.31    96186.751    123859.27     0.829894 
     494         4.94    906.09714   -414816.06    11738.127   -403077.93    96055.867    123864.38    0.8298598 
     495         4.95    907.55309   -414843.57    11756.988   -403086.58    95925.917    123869.49   0.82982555 
     496         4.96     909.0081   -414871.13    11775.837   -403095.29    95795.525    123874.61   0.82979124 
     497         4.97    910.46202   -414898.77    11794.672    -403104.1    95651.166    123879.74   0.82975689 
     498         4.98    911.91486   -414926.28    11813.493   -403112.79    95519.458    123884.87   0.82972249 
     499         4.99    913.36675   -414953.89    11832.301   -403121.59    95388.545    123890.02   0.82968804 
     500            5    914.81771    -414981.4    11851.098    -403130.3    95256.765    123895.17   0.82965353 
     501         5.01    916.26769   -415009.01    11869.882   -403139.13    95125.406    123900.33   0.82961898 
     502         5.02     917.7166   -415036.69    11888.652   -403148.04    94982.312     123905.5   0.82958438 
     503         5.03    919.16426   -415064.35    11907.406   -403156.95     94833.92    123910.67   0.82954973 
     504         5.04    920.61078   -415091.82    11926.145   -403165.67    94699.154    123915.86   0.82951503 
     505         5.05    922.05634    -415119.3    11944.871   -403174.42    94564.552    123921.05   0.82948028 
     506         5.06    923.50091   -415146.74    11963.585   -403183.16    94424.917    123926.25   0.82944549 
     507         5.07    924.94448      -415174    11982.286   -403191.71    94290.209    123931.45   0.82941064 
     508         5.08    926.38695    -415201.7    12000.973   -403200.73    94143.388    123936.67   0.82937575 
     509         5.09    927.82831    -415229.2    12019.645   -403209.55    94006.985    123941.89   0.82934081 
     510          5.1    929.26872   -415256.61    12038.305    -403218.3    93870.573    123947.12   0.82930582 
     511         5.11    930.70818   -415284.06    12056.953   -403227.11    93734.026    123952.35   0.82927079 
     512         5.12    932.14669   -415311.48    12075.588    -403235.9     93598.15     123957.6   0.82923571 
     513         5.13    933.58429    -415338.9    12094.211   -403244.69     93462.61    123962.85   0.82920058 
     514         5.14    935.02098   -415366.22    12112.823    -403253.4    93326.417    123968.11    0.8291654 
     515         5.15    936.45675   -415393.49    12131.423   -403262.07    93189.522    123973.37   0.82913018 
     516         5.16    937.89161   -415420.88    12150.011   -403270.87     93053.36    123978.65   0.82909491 
     517         5.17    939.32554   -415448.13    12168.587   -403279.55    92915.958    123983.93    0.8290596 
     518         5.18    940.75855    -415475.5    12187.151   -403288.35    92779.208    123989.22   0.82902424 
     519         5.19     942.1905   -415502.95    12205.702   -403297.25    92626.841    123994.51   0.82898883 
     520          5.2    943.62136   -415530.12    12224.238   -403305.88    92486.707    123999.82   0.82895338 
     521         5.21    945.05125   -415557.37    12242.761   -403314.61    92347.627    124005.13   0.82891788 
     522         5.22    946.48007   -415584.79    12261.271   -403323.52    92196.186    124010.44   0.82888234 
     523         5.23    947.90783      -415612    12279.767   -403332.23    92056.117    124015.77   0.82884675 
     524         5.24    949.33464   -415639.24    12298.251   -403340.99    91916.872     124021.1   0.82881112 
     525         5.25    950.76041   -415666.61    12316.721   -403349.89    91764.027    124026.44   0.82877544 
     526         5.26    952.18503   -415693.97    12335.177    -403358.8    91610.835    124031.78   0.82873972 
     527         5.27    953.60835   -415721.46    12353.615   -403367.84    91446.093    124037.14   0.82870396 
     528         5.28    955.03018   -415748.91    12372.034   -403376.87    91274.486     124042.5   0.82866815 
     529         5.29    956.45063   -415776.26    12390.436   -403385.83    91115.239    124047.86    0.8286323 
     530          5.3    957.86977   -415803.53     12408.82   -403394.71    90951.196    124053.24   0.82859641 
     531         5.31    959.28772   -415830.63    12427.189   -403403.44    90804.392    124058.62   0.82856047 
     532         5.32    960.70458   -415857.86    12445.544   -403412.32    90646.154       124064   0.82852449 
     533         5.33    962.12027   -415885.08    12463.884    -403421.2    90487.799     124069.4   0.82848847 
     534         5.34    963.53456   -415912.65    12482.205   -403430.44    90302.049     124074.8   0.82845241 
     535         5.35    964.94739   -415939.86    12500.508   -403439.35    90139.976    124080.21    0.8284163 
     536         5.36    966.35892   -415967.01    12518.794   -403448.22    89973.729    124085.62   0.82838015 
     537         5.37    967.76918   -415994.14    12537.063   -403457.08     89811.51    124091.04   0.82834396 
     538         5.38    969.17819   -416021.23    12555.316   -403465.92    89648.375    124096.47   0.82830773 
     539         5.39    970.58607    -416048.3    12573.555   -403474.74    89496.966     124101.9   0.82827146 
     540          5.4    971.99285   -416075.46    12591.779   -403483.68     89334.36    124107.35   0.82823515 
     541         5.41    973.39853   -416102.42    12609.989   -403492.44    89183.283    124112.79   0.82819879 
     542         5.42    974.80318   -416129.56    12628.186   -403501.37    89018.509    124118.25    0.8281624 
     543         5.43     976.2068   -416156.52    12646.369   -403510.15    88865.709    124123.71   0.82812597 
     544         5.44    977.60935   -416183.56    12664.539   -403519.02    88703.495    124129.18   0.82808949 
     545         5.45    979.01058   -416210.78    12682.691   -403528.09    88523.306    124134.65   0.82805298 
     546         5.46    980.41059   -416237.63    12700.827    -403536.8    88369.562    124140.13   0.82801643 
     547         5.47    981.80964   -416264.54    12718.952   -403545.58    88216.205    124145.61   0.82797984 
     548         5.48    983.20755   -416291.45    12737.061   -403554.39    88046.216    124151.11   0.82794321 
     549         5.49    984.60434   -416318.28    12755.156   -403563.12    87893.075    124156.61   0.82790654 
     550          5.5    986.00018   -416345.16    12773.238   -403571.92    87739.064    124162.11   0.82786983 
     551         5.51    987.39492   -416372.05    12791.307   -403580.75     87571.03    124167.62   0.82783308 
     552         5.52    988.78861   -416398.83    12809.361   -403589.46    87418.586    124173.14    0.8277963 
     553         5.53    990.18139   -416425.56    12827.404   -403598.16    87265.306    124178.66   0.82775948 
     554         5.54    991.57329   -416452.41    12845.436   -403606.97    87113.534    124184.19   0.82772262 
     555         5.55    992.96436    -416479.1    12863.457   -403615.64    86962.768    124189.73   0.82768572 
     556         5.56    994.35416   -416506.23    12881.461   -403624.77    86771.716    124195.27   0.82764879 
     557         5.57    995.74263   -416533.11    12899.448   -403633.66    86608.977    124200.82   0.82761182 
     558         5.58    997.13018   -416559.79    12917.423   -403642.36    86455.208    124206.37   0.82757481 
     559         5.59    998.51676   -416586.64    12935.386   -403651.25    86289.585    124211.93   0.82753777 
     560          5.6    999.90243    -416613.3    12953.336   -403659.96    86136.655     124217.5   0.82750069 
     561         5.61    1001.2873    -416639.9    12971.277   -403668.63     85983.73    124223.07   0.82746358 
     562         5.62    1002.6713   -416666.64    12989.206   -403677.43    85819.211    124228.65   0.82742643 
     563         5.63    1004.0544   -416693.36    13007.124   -403686.24    85655.772    124234.23   0.82738924 
     564         5.64    1005.4366   -416719.96     13025.03   -403694.93    85502.422    124239.82   0.82735202 
     565         5.65    1006.8181   -416746.67    13042.926   -403703.74    85351.564    124245.41   0.82731477 
     566         5.66    1008.1987   -416773.51    13060.811    -403712.7    85171.829    124251.01   0.82727748 
     567         5.67    1009.5782   -416800.16    13078.683   -403721.48    85014.127    124256.62   0.82724015 
     568         5.68    1010.9569   -416826.97    13096.542   -403730.43    84836.998    124262.23    0.8272028 
     569         5.69    1012.3346   -416853.45     13114.39   -403739.06    84683.293    124267.85    0.8271654 
     570          5.7    1013.7113   -416880.16    13132.225   -403747.93    84503.312    124273.47   0.82712798 
     571         5.71     1015.087   -416906.78    13150.047   -403756.73    84334.996     124279.1   0.82709052 
     572         5.72    1016.4617    -416933.4    13167.855   -403765.54    84155.911    124284.73   0.82705303 
     573         5.73    1017.8353   -416959.97    13185.649   -403774.32    83985.915    124290.37    0.8270155 
     574         5.74    1019.2081   -416986.46    13203.433   -403783.03    83830.364    124296.02   0.82697795 
     575         5.75    1020.5801   -417012.94    13221.208   -403791.74    83663.567    124301.67   0.82694036 
     576         5.76    1021.9513   -417039.54    13238.971   -403800.57    83494.273    124307.32   0.82690274 
     577         5.77    1023.3218   -417065.89    13256.725   -403809.16    83341.058    124312.98   0.82686508 
     578         5.78    1024.6916   -417092.46     13274.47   -403817.99    83158.813    124318.65    0.8268274 
     579         5.79    1026.0604   -417118.91    13292.203   -403826.71     82992.17    124324.32   0.82678968 
     580          5.8    1027.4284   -417145.44    13309.925   -403835.51    82827.154       124330   0.82675194 
     581         5.81    1028.7956   -417172.14    13327.636    -403844.5    82652.049    124335.68   0.82671416 
     582         5.82     1030.162   -417198.48    13345.337   -403853.15    82496.843    124341.36   0.82667635 
     583         5.83    1031.5277   -417225.13    13363.029    -403862.1    82323.741    124347.06   0.82663851 
     584         5.84    1032.8927   -417251.46    13380.712   -403870.75    82170.826    124352.75   0.82660064 
     585         5.85    1034.2573   -417277.85     13398.39   -403879.46    82019.922    124358.45   0.82656275 
     586         5.86    1035.6216   -417304.13    13416.063   -403888.07    81869.633    124364.16   0.82652482 
     587         5.87    1036.9852   -417330.61    13433.729   -403896.88    81702.656    124369.87   0.82648686 
     588         5.88    1038.3482   -417356.99    13451.387    -403905.6    81538.993    124375.59   0.82644887 
     589         5.89    1039.7107   -417383.13    13469.037   -403914.09    81389.666    124381.31   0.82641086 
     590          5.9    1041.0729    -417409.4    13486.684   -403922.72     81240.64    124387.04   0.82637282 
     591         5.91    1042.4348   -417435.63    13504.326    -403931.3     81089.51    124392.77   0.82633474 
     592         5.92    1043.7964   -417461.87    13521.965   -403939.91    80942.364     124398.5   0.82629664 
     593         5.93    1045.1576   -417488.13    13539.599   -403948.53    80785.632    124404.24   0.82625852 
     594         5.94    1046.5181   -417514.58    13557.224   -403957.35    80605.087    124409.99   0.82622036 
     595         5.95    1047.8778   -417541.03    13574.838   -403966.19    80416.766    124415.74   0.82618218 
     596         5.96    1049.2368   -417567.19    13592.443   -403974.75    80266.178    124421.49   0.82614397 
     597         5.97    1050.5954   -417593.45    13610.044   -403983.41     80105.03    124427.25   0.82610573 
     598         5.98    1051.9536   -417619.65    13627.639   -403992.01     79946.82    124433.01   0.82606747 
     599         5.99    1053.3115   -417645.82     13645.23   -404000.59    79801.363    124438.78   0.82602918 
     600            6    1054.6694   -417672.02    13662.821    -404009.2    79656.846    124444.55   0.82599087 
     601         6.01    1056.0272   -417698.08     13680.41   -404017.67    79513.838    124450.33   0.82595253 
     602         6.02    1057.3848   -417724.56    13697.997   -404026.56    79355.769    124456.11   0.82591416 
     603         6.03    1058.7422   -417750.59    13715.583   -404035.01    79213.777     124461.9   0.82587577 
     604         6.04    1060.0997   -417776.75    13733.169   -404043.58    79073.878    124467.69   0.82583735 
     605         6.05    1061.4572   -417803.12    13750.753   -404052.36     78912.22    124473.48   0.82579891 
     606         6.06    1062.8143   -417829.45    13768.335   -404061.12    78753.829    124479.28   0.82576044 
     607         6.07    1064.1713   -417855.68    13785.915   -404069.76    78599.987    124485.08   0.82572195 
     608         6.08    1065.5284   -417881.82    13803.495   -404078.33    78460.288    124490.89   0.82568344 
     609         6.09    1066.8856   -417907.97    13821.077    -404086.9    78322.926     124496.7    0.8256449 
     610          6.1    1068.2429   -417934.21     13838.66   -404095.55    78178.496    124502.52   0.82560634 
     611         6.11    1069.6002   -417960.41    13856.243   -404104.17    78034.539    124508.33   0.82556775 
     612         6.12    1070.9577    -417986.6    13873.829   -404112.77    77899.415    124514.16   0.82552914 
     613         6.13    1072.3153   -418012.81    13891.416    -404121.4    77757.925    124519.98   0.82549051 
     614         6.14    1073.6731   -418038.95    13909.006   -404129.95    77626.169    124525.82   0.82545185 
     615         6.15    1075.0312   -418065.12      13926.6   -404138.52    77494.406    124531.65   0.82541318 
     616         6.16    1076.3894   -418091.68    13944.195   -404147.49    77333.844    124537.49   0.82537448 
     617         6.17    1077.7478   -418117.73    13961.792   -404155.94     77198.33    124543.33   0.82533576 
     618         6.18    1079.1064   -418143.92    13979.392   -404164.52    77068.799    124549.18   0.82529701 
     619         6.19    1080.4654   -418169.93    13996.998   -404172.94    76940.409    124555.03   0.82525825 
     620          6.2    1081.8249   -418196.14    14014.609   -404181.53    76812.726    124560.88   0.82521946 
     621         6.21    1083.1848    -418222.3    14032.226   -404190.08     76681.19    124566.74   0.82518066 
     622         6.22    1084.5451    -418248.6    14049.848   -404198.76    76544.067     124572.6   0.82514183 
     623         6.23    1085.9058   -418274.82    14067.475   -404207.35    76408.579    124578.47   0.82510298 
     624         6.24    1087.2667   -418301.23    14085.106   -404216.13    76258.288    124584.34   0.82506411 
     625         6.25     1088.628   -418327.44    14102.741    -404224.7    76133.491    124590.21   0.82502523 
     626         6.26    1089.9898   -418353.65    14120.383   -404233.26      76011.6    124596.09   0.82498632 
     627         6.27    1091.3521   -418380.08    14138.031   -404242.05    75865.362    124601.96   0.82494739 
     628         6.28    1092.7149   -418406.18    14155.685   -404250.49    75743.312    124607.85   0.82490844 
     629         6.29     1094.078   -418432.74    14173.344    -404259.4    75596.212    124613.73   0.82486948 
     630          6.3    1095.4416   -418458.87    14191.008   -404267.86    75465.648    124619.62   0.82483049 
     631         6.31    1096.8056   -418485.48    14208.678    -404276.8    75324.686    124625.52   0.82479149 
     632         6.32    1098.1702   -418511.72    14226.356   -404285.37    75206.113    124631.41   0.82475246 
     633         6.33    1099.5355   -418537.88    14244.043   -404293.84    75090.033    124637.31   0.82471342 
     634         6.34    1100.9016   -418564.25     14261.74   -404302.51    74968.763    124643.22   0.82467436 
     635         6.35    1102.2684   -418590.51    14279.447   -404311.07    74850.558    124649.12   0.82463529 
     636         6.36    1103.6361   -418616.83    14297.165   -404319.67    74728.008    124655.03   0.82459619 
     637         6.37    1105.0047      -418643    14314.894    -404328.1    74617.137    124660.95   0.82455708 
     638         6.38    1106.3741   -418669.33    14332.635   -404336.69     74495.77    124666.86   0.82451795 
     639         6.39    1107.7445   -418695.55    14350.387   -404345.16    74387.337    124672.78   0.82447881 
     640          6.4    1109.1159   -418721.83    14368.153   -404353.68    74281.118     124678.7   0.82443965 
     641         6.41    1110.4883   -418748.04    14385.932   -404362.11    74177.128    124684.63   0.82440047 
     642         6.42    1111.8617   -418774.27    14403.725   -404370.54    74072.965    124690.56   0.82436127 
     643         6.43    1113.2362   -418800.71    14421.531   -404379.18    73958.912    124696.49   0.82432206 
     644         6.44    1114.6118   -418826.95    14439.351    -404387.6    73857.642    124702.42   0.82428284 
     645         6.45    1115.9884    -418853.5    14457.183   -404396.32    73740.158    124708.36   0.82424359 
     646         6.46    1117.3657   -418880.14    14475.027   -404405.11    73608.943     124714.3   0.82420434 
     647         6.47    1118.7441   -418906.41    14492.883   -404413.53    73506.516    124720.24   0.82416506 
     648         6.48    1120.1237   -418932.71    14510.755   -404421.95    73409.113    124726.19   0.82412578 
     649         6.49    1121.5045   -418959.13    14528.643   -404430.49    73313.387    124732.14   0.82408647 
     650          6.5    1122.8865   -418985.63    14546.546   -404439.08    73210.143    124738.09   0.82404716 
     651         6.51    1124.2698   -419011.99    14564.466   -404447.53    73116.749    124744.04   0.82400783 
     652         6.52    1125.6542   -419038.62    14582.401   -404456.22    73007.497       124750   0.82396848 
     653         6.53    1127.0399   -419065.05    14600.351   -404464.69    72915.658    124755.96   0.82392912 
     654         6.54    1128.4268   -419091.52    14618.318    -404473.2    72810.541    124761.92   0.82388975 
     655         6.55     1129.815   -419117.93    14636.302   -404481.62    72721.251    124767.88   0.82385036 
     656         6.56    1131.2046   -419144.54    14654.304   -404490.23    72626.368    124773.85   0.82381096 
     657         6.57    1132.5954   -419171.44    14672.321   -404499.12    72517.811    124779.82   0.82377155 
     658         6.58    1133.9874   -419197.92    14690.353   -404507.56    72432.018    124785.79   0.82373213 
     659         6.59    1135.3808   -419224.47    14708.405   -404516.06    72347.582    124791.77   0.82369269 
     660          6.6    1136.7758   -419250.91    14726.477   -404524.43    72265.642    124797.74   0.82365324 
     661         6.61    1138.1724   -419277.55    14744.568   -404532.98     72185.78    124803.72   0.82361378 
     662         6.62    1139.5704   -419304.22     14762.68   -404541.55    72106.455    124809.71    0.8235743 
     663         6.63    1140.9699   -419331.13     14780.81   -404550.32    72008.948    124815.69   0.82353481 
     664         6.64    1142.3709   -419357.73    14798.958   -404558.78    71930.686    124821.68   0.82349532 
     665         6.65    1143.7733   -419384.59    14817.126   -404567.46    71844.109    124827.67   0.82345581 
     666         6.66     1145.177   -419411.46    14835.311   -404576.15    71745.195    124833.66   0.82341629 
     667         6.67    1146.5822   -419438.22    14853.515   -404584.71    71669.244    124839.65   0.82337675 
     668         6.68    1147.9891   -419464.96     14871.74   -404593.22    71597.207    124845.65   0.82333721 
     669         6.69    1149.3976   -419491.72    14889.987   -404601.74    71525.989    124851.64   0.82329766 
     670          6.7    1150.8077   -419518.79    14908.255   -404610.54    71438.839    124857.64   0.82325809 
     671         6.71    1152.2193   -419545.64    14926.541    -404619.1    71356.129    124863.65   0.82321852 
     672         6.72    1153.6325   -419572.58    14944.848   -404627.73    71285.775    124869.65   0.82317894 
     673         6.73    1155.0473    -419599.6    14963.177   -404636.42    71209.029    124875.66   0.82313934 
     674         6.74     1156.464   -419626.44    14981.529   -404644.92    71141.886    124881.66   0.82309974 
     675         6.75    1157.8823   -419653.52    14999.903   -404653.61    71071.312    124887.68   0.82306013 
     676         6.76    1159.3024   -419680.55      15018.3   -404662.25    70997.514    124893.69    0.8230205 
     677         6.77    1160.7243   -419707.44    15036.719   -404670.72    70933.361     124899.7   0.82298087 
     678         6.78    1162.1479    -419734.5    15055.162   -404679.34    70870.549    124905.72   0.82294123 
     679         6.79    1163.5735   -419761.54    15073.629   -404687.91    70809.827    124911.74   0.82290158 
     680          6.8    1165.0008   -419788.96     15092.12   -404696.84    70729.838    124917.76   0.82286192 
     681         6.81    1166.4299   -419816.25    15110.634   -404705.62    70663.182    124923.78   0.82282226 
     682         6.82    1167.8609   -419843.58    15129.171   -404714.41    70597.461     124929.8   0.82278258 
     683         6.83    1169.2937   -419870.77    15147.733   -404723.03    70542.125    124935.83    0.8227429 
     684         6.84    1170.7285   -419897.97     15166.32   -404731.65    70486.638    124941.86   0.82270321 
     685         6.85    1172.1653   -419925.14    15184.933    -404740.2    70432.861    124947.88   0.82266351 
     686         6.86    1173.6041   -419952.39    15203.572   -404748.82    70380.967    124953.92   0.82262381 
     687         6.87    1175.0448   -419979.75    15222.236   -404757.52    70327.677    124959.95   0.82258409 
[...]
   35275       352.75     301.1702   -465136.22    3901.5397   -461234.68    190.48793    123328.82   0.83346348 
   35276       352.76    301.18058   -465136.71     3901.674   -461235.03    175.52304    123328.68   0.83346439 
   35277       352.77    301.19085      -465137    3901.8071   -461235.19    170.73896    123328.55   0.83346531 
   35278       352.78    301.20105   -465137.41    3901.9392   -461235.47    170.02056    123328.41   0.83346622 
   35279       352.79    301.21116   -465137.96    3902.0702   -461235.89    162.29631    123328.28   0.83346714 
   35280        352.8    301.22115    -465138.3    3902.1997    -461236.1    153.52458    123328.14   0.83346805 
   35281       352.81      301.231   -465138.63    3902.3272    -461236.3    162.06579    123328.01   0.83346897 
   35282       352.82    301.24055   -465138.66     3902.451    -461236.2    180.54276    123327.87   0.83346988 
   35283       352.83    301.24981   -465139.23     3902.571   -461236.66    166.01614    123327.74   0.83347079 
   35284       352.84    301.25893   -465139.35    3902.6891   -461236.67    168.36883     123327.6    0.8334717 
   35285       352.85    301.26792   -465139.79    3902.8056   -461236.99    160.36956    123327.47   0.83347262 
   35286       352.86    301.27679    -465140.3    3902.9205   -461237.38    151.85031    123327.33   0.83347353 
   35287       352.87    301.28558   -465140.63    3903.0343    -461237.6    149.83718     123327.2   0.83347444 
   35288       352.88    301.29421   -465141.11    3903.1461   -461237.96    150.05302    123327.06   0.83347535 
   35289       352.89    301.30262   -465141.42    3903.2551   -461238.16    156.86278    123326.93   0.83347626 
   35290        352.9    301.31091    -465141.7    3903.3625   -461238.34    156.62267    123326.79   0.83347717 
   35291       352.91    301.31906   -465141.76     3903.468   -461238.29    171.36308    123326.66   0.83347808 
   35292       352.92    301.32702   -465142.17    3903.5712    -461238.6    165.31819    123326.52   0.83347899 
   35293       352.93    301.33485   -465142.24    3903.6727   -461238.56    179.98385    123326.39    0.8334799 
   35294       352.94    301.34261   -465142.58    3903.7731   -461238.81    179.14792    123326.25   0.83348081 
   35295       352.95    301.35028   -465142.91    3903.8725   -461239.04    178.85064    123326.12   0.83348172 
   35296       352.96    301.35785   -465143.13    3903.9706   -461239.16     183.0714    123325.99   0.83348262 
   35297       352.97    301.36519   -465143.74    3904.0656   -461239.68    187.46778    123325.85   0.83348353 
   35298       352.98    301.37229   -465144.02    3904.1576   -461239.86     192.1625    123325.72   0.83348444 
   35299       352.99    301.37929   -465144.49    3904.2483   -461240.24    190.69166    123325.58   0.83348534 
   35300          353    301.38611   -465144.98    3904.3367   -461240.64    178.36899    123325.45   0.83348625 
   35301       353.01    301.39272   -465145.44    3904.4222   -461241.02    180.09921    123325.31   0.83348716 
   35302       353.02    301.39908    -465145.6    3904.5046    -461241.1    201.53834    123325.18   0.83348806 
   35303       353.03    301.40511   -465145.85    3904.5827   -461241.27    194.92716    123325.05   0.83348897 
   35304       353.04    301.41093   -465146.18    3904.6582   -461241.52    193.40366    123324.91   0.83348987 
   35305       353.05    301.41662   -465146.49    3904.7318   -461241.76    187.75351    123324.78   0.83349077 
   35306       353.06    301.42212   -465146.68    3904.8031   -461241.87    190.92595    123324.65   0.83349168 
   35307       353.07    301.42746   -465146.95    3904.8723   -461242.08    189.59079    123324.51   0.83349258 
   35308       353.08    301.43271   -465147.28    3904.9404   -461242.34    189.06664    123324.38   0.83349348 
   35309       353.09     301.4379   -465147.61    3905.0076   -461242.61    188.99785    123324.24   0.83349439 
   35310        353.1    301.44293   -465148.04    3905.0727   -461242.97    174.50401    123324.11   0.83349529 
   35311       353.11    301.44777   -465148.39    3905.1355   -461243.25    173.75172    123323.98   0.83349619 
   35312       353.12    301.45243   -465148.69    3905.1958    -461243.5    178.16883    123323.84   0.83349709 
   35313       353.13    301.45681   -465148.84    3905.2525   -461243.59    182.16038    123323.71   0.83349799 
   35314       353.14    301.46091   -465149.17    3905.3057   -461243.87    182.66055    123323.58   0.83349889 
   35315       353.15     301.4648   -465149.38     3905.356   -461244.02    198.57064    123323.45   0.83349979 
   35316       353.16    301.46848   -465149.65    3905.4037   -461244.25    204.06804    123323.31   0.83350069 
   35317       353.17    301.47201   -465149.91    3905.4495   -461244.46    212.85486    123323.18   0.83350159 
   35318       353.18    301.47543   -465150.11    3905.4937   -461244.62    211.91078    123323.05   0.83350249 
   35319       353.19    301.47876   -465150.38    3905.5368   -461244.84    211.74758    123322.91   0.83350338 
   35320        353.2    301.48196   -465150.91    3905.5784   -461245.33    199.86506    123322.78   0.83350428 
   35321       353.21    301.48496    -465150.8    3905.6172   -461245.18    216.15474    123322.65   0.83350518 
   35322       353.22    301.48782   -465151.17    3905.6542   -461245.51    210.64093    123322.52   0.83350607 
   35323       353.23    301.49061   -465151.33    3905.6904   -461245.64    213.37067    123322.38   0.83350697 
   35324       353.24    301.49328   -465152.04     3905.725   -461246.32       198.14    123322.25   0.83350787 
   35325       353.25    301.49581   -465152.02    3905.7577   -461246.27    208.67128    123322.12   0.83350876 
   35326       353.26     301.4981   -465152.08    3905.7875   -461246.29    217.03925    123321.99   0.83350966 
   35327       353.27    301.50021   -465152.36    3905.8148   -461246.55    217.33874    123321.85   0.83351055 
   35328       353.28    301.50219   -465153.09    3905.8404   -461247.25    204.27862    123321.72   0.83351144 
   35329       353.29    301.50401   -465153.22     3905.864   -461247.35    209.18134    123321.59   0.83351234 
   35330        353.3    301.50578   -465153.64     3905.887   -461247.75    204.67668    123321.46   0.83351323 
   35331       353.31     301.5075    -465153.8    3905.9092   -461247.89    210.90957    123321.32   0.83351412 
   35332       353.32    301.50917   -465154.05    3905.9308   -461248.12    213.46519    123321.19   0.83351501 
   35333       353.33     301.5108   -465154.17    3905.9519   -461248.22    223.25937    123321.06   0.83351591 
   35334       353.34    301.51237   -465154.58    3905.9723   -461248.61     220.7182    123320.93    0.8335168 
   35335       353.35    301.51382    -465154.4    3905.9911   -461248.41     236.3021     123320.8   0.83351769 
   35336       353.36    301.51518   -465154.69    3906.0087   -461248.68    231.34326    123320.67   0.83351858 
   35337       353.37    301.51652   -465154.85     3906.026   -461248.82    239.17802    123320.53   0.83351947 
   35338       353.38    301.51783   -465154.93     3906.043   -461248.89    249.38359     123320.4   0.83352036 
   35339       353.39    301.51899   -465155.07    3906.0581   -461249.01    265.30132    123320.27   0.83352125 
   35340        353.4    301.52002   -465155.38    3906.0714    -461249.3     260.8323    123320.14   0.83352214 
   35341       353.41    301.52092   -465155.53     3906.083   -461249.45    277.96195    123320.01   0.83352302 
   35342       353.42    301.52172   -465155.81    3906.0935   -461249.71    280.50247    123319.88   0.83352391 
   35343       353.43    301.52253   -465156.12    3906.1039   -461250.01    277.89281    123319.75    0.8335248 
   35344       353.44    301.52329   -465156.26    3906.1138   -461250.15    272.83363    123319.61   0.83352568 
   35345       353.45    301.52392   -465156.22    3906.1219    -461250.1      291.119    123319.48   0.83352657 
   35346       353.46    301.52441   -465156.71    3906.1283   -461250.59    283.13307    123319.35   0.83352746 
   35347       353.47    301.52483   -465157.26    3906.1337   -461251.12    263.29097    123319.22   0.83352834 
   35348       353.48    301.52513   -465157.69    3906.1375   -461251.55    257.44422    123319.09   0.83352923 
   35349       353.49    301.52535   -465157.74    3906.1405    -461251.6    265.16208    123318.96   0.83353011 
   35350        353.5    301.52561   -465157.84    3906.1438    -461251.7    274.16357    123318.83   0.83353099 
   35351       353.51    301.52583   -465158.09    3906.1467   -461251.94    282.67414     123318.7   0.83353188 
   35352       353.52    301.52601   -465158.55     3906.149    -461252.4     277.5448    123318.57   0.83353276 
   35353       353.53    301.52616   -465158.86     3906.151   -461252.71     276.7542    123318.44   0.83353364 
   35354       353.54    301.52623   -465158.78    3906.1518   -461252.63    294.71309    123318.31   0.83353452 
   35355       353.55    301.52622      -465159    3906.1517   -461252.85    303.76382    123318.18    0.8335354 
   35356       353.56    301.52608   -465159.34    3906.1499   -461253.19    312.19333    123318.05   0.83353629 
   35357       353.57    301.52582   -465159.24    3906.1465    -461253.1    328.57803    123317.92   0.83353717 
   35358       353.58    301.52554   -465159.68     3906.143   -461253.54    326.76999    123317.79   0.83353805 
   35359       353.59    301.52529   -465159.82    3906.1397   -461253.68     336.5501    123317.66   0.83353892 
   35360        353.6    301.52506   -465160.21    3906.1367   -461254.08    335.93154    123317.53    0.8335398 
   35361       353.61    301.52485   -465160.26     3906.134   -461254.12    356.94519     123317.4   0.83354068 
   35362       353.62    301.52464   -465160.38    3906.1313   -461254.24    361.15429    123317.27   0.83354156 
   35363       353.63     301.5244    -465160.7    3906.1281   -461254.57     363.4672    123317.14   0.83354244 
   35364       353.64    301.52416   -465160.89     3906.125   -461254.76    359.67386    123317.01   0.83354331 
   35365       353.65    301.52394   -465161.03    3906.1222   -461254.91    371.97299    123316.88   0.83354419 
   35366       353.66    301.52373   -465160.93    3906.1195   -461254.81    392.29507    123316.75   0.83354506 
   35367       353.67    301.52349   -465161.46    3906.1163   -461255.34    381.52618    123316.62   0.83354594 
   35368       353.68     301.5232    -465161.7    3906.1126   -461255.58    379.49855    123316.49   0.83354681 
   35369       353.69    301.52289   -465162.14    3906.1086   -461256.03    376.69106    123316.36   0.83354769 
   35370        353.7    301.52258   -465162.55    3906.1046   -461256.45    376.96366    123316.23   0.83354856 
   35371       353.71    301.52228   -465162.62    3906.1006   -461256.52    390.36485     123316.1   0.83354943 
   35372       353.72    301.52201   -465162.89    3906.0972   -461256.79    399.16632    123315.97    0.8335503 
   35373       353.73    301.52176   -465162.98     3906.094   -461256.88    414.51124    123315.84   0.83355118 
   35374       353.74    301.52145   -465163.21    3906.0899   -461257.12    441.67716    123315.71   0.83355205 
   35375       353.75    301.52104   -465163.46    3906.0846   -461257.38    454.48648    123315.59   0.83355292 
   35376       353.76    301.52045   -465163.49    3906.0769   -461257.41    475.74159    123315.46   0.83355379 
   35377       353.77    301.51968   -465163.77     3906.067   -461257.71    479.75671    123315.33   0.83355466 
   35378       353.78    301.51882   -465164.28    3906.0558   -461258.22    472.48649     123315.2   0.83355553 
   35379       353.79    301.51794   -465164.52    3906.0445   -461258.47    478.26678    123315.07   0.83355639 
   35380        353.8    301.51711   -465164.77    3906.0337   -461258.74    481.45505    123314.94   0.83355726 
   35381       353.81     301.5163   -465164.91    3906.0233   -461258.89    498.19621    123314.81   0.83355813 
   35382       353.82    301.51544   -465165.24    3906.0121   -461259.23    504.65358    123314.69   0.83355899 
   35383       353.83    301.51448   -465165.14    3905.9996   -461259.14    527.70791    123314.56   0.83355986 
   35384       353.84    301.51334   -465165.21    3905.9848   -461259.23    544.89593    123314.43   0.83356072 
   35385       353.85    301.51196   -465165.36     3905.967   -461259.39    555.95867     123314.3   0.83356159 
   35386       353.86    301.51055   -465165.62    3905.9488   -461259.67    564.40415    123314.17   0.83356245 
   35387       353.87     301.5092   -465165.85    3905.9312   -461259.92    570.75502    123314.05   0.83356331 
   35388       353.88    301.50787   -465166.02     3905.914   -461260.11    582.22312    123313.92   0.83356418 
   35389       353.89    301.50647   -465166.36    3905.8959   -461260.46    582.29702    123313.79   0.83356504 
   35390        353.9    301.50492   -465166.28    3905.8758    -461260.4    597.89296    123313.66    0.8335659 
   35391       353.91    301.50332   -465166.56    3905.8551   -461260.71    606.45748    123313.54   0.83356676 
   35392       353.92    301.50177   -465166.77    3905.8349   -461260.94     616.0168    123313.41   0.83356762 
   35393       353.93    301.50018   -465166.93    3905.8144   -461261.12    635.72386    123313.28   0.83356848 
   35394       353.94    301.49857   -465167.24    3905.7935   -461261.44     642.1654    123313.16   0.83356933 
   35395       353.95    301.49686   -465167.22    3905.7713   -461261.45    674.79299    123313.03   0.83357019 
   35396       353.96    301.49497   -465167.11    3905.7469   -461261.36    699.00105     123312.9   0.83357105 
   35397       353.97     301.4931   -465167.16    3905.7227   -461261.44    711.26715    123312.78    0.8335719 
   35398       353.98    301.49133   -465167.46    3905.6997   -461261.76    712.05556    123312.65   0.83357276 
   35399       353.99    301.48958    -465167.8    3905.6771   -461262.12     716.9915    123312.52   0.83357361 
   35400          354    301.48787    -465167.9    3905.6549   -461262.25    730.71104     123312.4   0.83357447 
   35401       354.01    301.48621   -465167.97    3905.6334   -461262.34    749.59806    123312.27   0.83357532 
   35402       354.02    301.48462   -465168.17    3905.6128   -461262.56    759.14461    123312.15   0.83357617 
   35403       354.03    301.48313   -465168.36    3905.5935   -461262.77     770.1905    123312.02   0.83357702 
   35404       354.04    301.48162   -465168.77    3905.5739   -461263.19    766.97336    123311.89   0.83357787 
   35405       354.05    301.47999   -465168.85    3905.5528    -461263.3    782.06764    123311.77   0.83357872 
   35406       354.06    301.47829   -465168.76    3905.5307   -461263.23    803.89519    123311.64   0.83357957 
   35407       354.07    301.47657   -465168.89    3905.5086   -461263.38     813.4584    123311.52   0.83358042 
   35408       354.08    301.47481   -465168.58    3905.4857    -461263.1    838.63482    123311.39   0.83358126 
   35409       354.09    301.47298   -465168.96     3905.462    -461263.5    840.01759    123311.27   0.83358211 
   35410        354.1    301.47119   -465169.42    3905.4388   -461263.98      841.359    123311.14   0.83358296 
   35411       354.11    301.46945    -465169.6    3905.4163   -461264.19    848.69577    123311.02    0.8335838 
   35412       354.12     301.4678   -465169.71     3905.395   -461264.32    859.79668    123310.89   0.83358464 
   35413       354.13    301.46617   -465169.98    3905.3738   -461264.61    865.93119    123310.77   0.83358549 
   35414       354.14    301.46455   -465170.22    3905.3528   -461264.87    879.37984    123310.64   0.83358633 
   35415       354.15    301.46294   -465170.13    3905.3319    -461264.8    904.72478    123310.52   0.83358717 
   35416       354.16    301.46136   -465170.21    3905.3115    -461264.9    919.76229    123310.39   0.83358801 
   35417       354.17    301.45987   -465170.29    3905.2922      -461265    937.87503    123310.27   0.83358885 
   35418       354.18    301.45812   -465170.31    3905.2696   -461265.04    951.16578    123310.15   0.83358968 
   35419       354.19    301.45595   -465170.42    3905.2414   -461265.18     965.5701    123310.02   0.83359052 
   35420        354.2    301.45366   -465170.45    3905.2117   -461265.24    967.73815     123309.9   0.83359136 
   35421       354.21    301.45133   -465170.52    3905.1815   -461265.34    986.59875    123309.78   0.83359219 
   35422       354.22    301.44902   -465170.59    3905.1516   -461265.44      1001.73    123309.65   0.83359303 
   35423       354.23    301.44679    -465170.9    3905.1228   -461265.78    1010.9538    123309.53   0.83359386 
   35424       354.24    301.44463   -465171.17    3905.0947   -461266.07    1013.2954    123309.41   0.83359469 
   35425       354.25    301.44247   -465171.18    3905.0667   -461266.11    1028.1567    123309.28   0.83359552 
   35426       354.26    301.44029   -465171.51    3905.0386   -461266.47    1033.9777    123309.16   0.83359635 
   35427       354.27    301.43812   -465171.52    3905.0104   -461266.51    1052.2079    123309.04   0.83359718 
   35428       354.28    301.43597   -465171.76    3904.9826   -461266.77    1062.5944    123308.91   0.83359801 
   35429       354.29    301.43386   -465171.95    3904.9552      -461267    1071.0258    123308.79   0.83359884 
   35430        354.3    301.43178      -465172    3904.9282   -461267.08    1080.6647    123308.67   0.83359967 
   35431       354.31     301.4297   -465172.52    3904.9014   -461267.62    1076.6139    123308.55   0.83360049 
   35432       354.32    301.42753   -465172.47    3904.8732    -461267.6    1098.6349    123308.43   0.83360131 
   35433       354.33    301.42527    -465172.5     3904.844   -461267.66    1121.4395     123308.3   0.83360214 
   35434       354.34    301.42274   -465172.84    3904.8112   -461268.03    1110.4752    123308.18   0.83360296 
   35435       354.35    301.41987   -465172.99     3904.774   -461268.21    1117.3703    123308.06   0.83360378 
   35436       354.36    301.41692   -465173.36    3904.7358   -461268.62    1113.8133    123307.94    0.8336046 
   35437       354.37    301.41386   -465173.38    3904.6962   -461268.68    1129.8971    123307.82   0.83360542 
   35438       354.38    301.41065   -465173.47    3904.6546   -461268.82    1143.8022     123307.7   0.83360624 
   35439       354.39    301.40742   -465173.52    3904.6128   -461268.91    1149.3037    123307.58   0.83360706 
   35440        354.4    301.40419   -465173.82    3904.5709   -461269.25    1153.0681    123307.46   0.83360787 
   35441       354.41    301.40085   -465173.98    3904.5275   -461269.46    1161.1666    123307.34   0.83360869 
   35442       354.42     301.3971   -465174.32     3904.479   -461269.84    1155.4758    123307.21    0.8336095 
   35443       354.43    301.39296   -465174.45    3904.4254   -461270.02    1162.5526    123307.09   0.83361031 
   35444       354.44    301.38868   -465174.25      3904.37   -461269.88    1197.1886    123306.97   0.83361112 
   35445       354.45    301.38435   -465174.44    3904.3139   -461270.12    1204.7167    123306.85   0.83361193 
   35446       354.46    301.38006   -465174.59    3904.2583   -461270.33     1205.905    123306.74   0.83361274 
   35447       354.47     301.3757   -465174.48    3904.2017   -461270.28    1228.6954    123306.62   0.83361355 
   35448       354.48    301.37128   -465174.64    3904.1445    -461270.5    1235.6692     123306.5   0.83361436 
   35449       354.49    301.36688   -465174.57    3904.0875   -461270.48    1258.0346    123306.38   0.83361