LAMMPS (19 Sep 2019)
OMP_NUM_THREADS environment is not set. Defaulting to 1 thread. (../comm.cpp:93)
  using 1 OpenMP thread(s) per MPI task
Reading data file ...
  orthogonal box = (-6.37931 -4.19611 -10.7845) to (6.5753 4.22201 10.6816)
  1 by 1 by 1 MPI processor grid
  reading atoms ...
  161 atoms
  read_data CPU = 0.0009627 secs
Replicating atoms ...
  orthogonal box = (-6.37931 -4.19611 -10.7845) to (32.4845 21.0582 53.6137)
  1 by 1 by 1 MPI processor grid
  4347 atoms
  replicate CPU = 0.0004379 secs
Reading potential file ffield.reax.FC with DATE: 2013-06-28
WARNING: Changed valency_val to valency_boc for X (../reaxc_ffield.cpp:315)
Neighbor list info ...
  update every 10 steps, delay 0 steps, check no
  max neighbors/atom: 2000, page size: 100000
  master list distance cutoff = 12
  ghost atom cutoff = 12
  binsize = 6, bins = 7 5 11
  2 neighbor lists, perpetual/occasional/extra = 2 0 0
  (1) pair reax/c, perpetual
      attributes: half, newton off, ghost
      pair build: half/bin/newtoff/ghost
      stencil: half/ghost/bin/3d/newtoff
      bin: standard
  (2) fix qeq/reax, perpetual, copy from (1)
      attributes: half, newton off, ghost
      pair build: copy
      stencil: none
      bin: none
Setting up Verlet run ...
  Unit style    : real
  Current step  : 0
  Time step     : 0.001
Per MPI rank memory allocation (min/avg/max) = 525.4 | 525.4 | 525.4 Mbytes
Step Temp E_pair TotEng Press 
       0            0    5373839.2    5373839.2    2727659.5 
       1   0.24806702      5373836    5373839.2    2727661.9 
       2   0.99226698    5373826.3    5373839.2    2727669.1 
       3    2.2325965    5373810.2    5373839.2      2727681 
       4      3.96905    5373787.7    5373839.1    2727697.6 
       5    6.2016197    5373758.8    5373839.1      2727719 
       6    8.9302954    5373723.4    5373839.1    2727745.2 
       7    12.155065    5373681.6      5373839    2727776.1 
       8    15.875914    5373633.3    5373838.9      2727811 
       9    20.092825    5373578.6    5373838.9    2727851.4 
      10    24.805779    5373517.5    5373838.8    2727896.6 
      11    30.014756    5373449.9    5373838.7    2727946.6 
      12    35.719731    5373375.9    5373838.6    2728001.3 
      13    41.920679    5373295.5    5373838.5    2728060.8 
      14    48.617572    5373208.6    5373838.4      2728125 
      15     55.81038    5373115.3    5373838.3      2728194 
      16     63.49907    5373015.6    5373838.2    2728267.7 
      17    71.683608    5372909.5    5373838.1    2728346.2 
      18    80.363956    5372796.9      5373838    2728429.4 
      19    89.540076    5372677.9    5373837.8    2728517.4 
      20    99.211926    5372552.5    5373837.7    2728610.1 
      21    109.37946    5372420.6    5373837.6    2728707.7 
      22    120.04264    5372282.3    5373837.4    2728809.9 
      23    131.20141    5372137.6    5373837.2    2728916.9 
      24    142.85572    5371986.4    5373837.1    2729028.6 
      25    155.00552    5371828.8    5373836.9    2729145.2 
      26    167.65076    5371664.8    5373836.7    2729266.3 
      27    180.79137    5371494.4    5373836.5    2729392.4 
      28     194.4273    5371317.6    5373836.3    2729523.1 
      29    208.55849    5371134.3    5373836.1    2729658.6 
      30    223.18487    5370944.6    5373835.9    2729798.8 
      31    238.30638    5370748.5    5373835.6    2729943.8 
      32    253.92295    5370545.9    5373835.4    2730093.5 
      33     270.0345      5370337    5373835.2      2730248 
      34    286.64098    5370121.6    5373834.9    2730407.1 
      35    303.74229    5369899.8    5373834.7    2730571.1 
      36    321.33836    5369671.6    5373834.4    2730739.7 
      37    339.42912      5369437    5373834.2    2730913.2 
      38    358.01449    5369195.9    5373833.9    2731091.3 
      39    377.09437    5368948.5    5373833.6    2731274.2 
      40    396.66868    5368694.6    5373833.3    2731461.8 
      41    416.73734    5368434.3      5373833    2731654.2 
      42    437.30025    5368167.7    5373832.7    2731851.2 
      43    458.35733    5367894.6    5373832.4      2732053 
      44    479.90847    5367615.1    5373832.1    2732259.6 
      45    501.95357    5367329.1    5373831.7    2732470.8 
      46    524.49255    5367036.8    5373831.4    2732686.8 
      47    547.52529    5366738.1    5373831.1    2732907.6 
      48     571.0517      5366433    5373830.7      2733133 
      49    595.07167    5366121.5    5373830.4    2733363.1 
      50    619.58508    5365803.5      5373830      2733598 
      51    644.59183    5365479.2    5373829.6    2733837.6 
      52    670.09181    5365148.5    5373829.3    2734081.9 
      53    696.08489    5364811.4    5373828.9    2734330.9 
      54    722.57098    5364467.9    5373828.5    2734584.6 
      55    749.54993      5364118    5373828.1    2734843.1 
      56    777.02163    5363761.7    5373827.7    2735106.3 
      57    804.98597      5363399    5373827.3    2735374.1 
      58     833.4428    5363029.9    5373826.8    2735646.7 
      59    862.39201    5362654.5    5373826.4      2735924 
      60    891.83346    5362272.6      5373826    2736205.9 
      61    921.76701    5361884.4    5373825.5    2736492.6 
      62    952.19255    5361489.8    5373825.1      2736784 
      63    983.10991    5361088.8    5373824.6      2737080 
      64     1014.519    5360681.5    5373824.1    2737380.8 
      65    1046.4196    5360267.7    5373823.7    2737686.2 
      66    1078.8116    5359847.6    5373823.2    2737996.4 
      67    1111.6949    5359421.1    5373822.7    2738311.2 
      68    1145.0693    5358988.3    5373822.2    2738630.7 
      69    1178.9347    5358549.1    5373821.7    2738954.9 
      70    1213.2909    5358103.5    5373821.2    2739283.8 
      71    1248.1378    5357651.5    5373820.7    2739617.3 
      72    1283.4751    5357193.2    5373820.1    2739955.6 
      73    1319.3028    5356728.6    5373819.6    2740298.5 
      74    1355.6207    5356257.5    5373819.1    2740646.1 
      75    1392.4286    5355780.2    5373818.5    2740998.3 
      76    1429.7263    5355296.4      5373818    2741355.2 
      77    1467.5137    5354806.3    5373817.4    2741716.8 
      78    1505.7906    5354309.9    5373816.8    2742083.1 
      79    1544.5569    5353807.1    5373816.3    2742453.9 
      80    1583.8123      5353298    5373815.7    2742829.5 
      81    1623.5567    5352782.5    5373815.1    2743209.7 
      82      1663.79    5352260.7    5373814.5    2743594.6 
      83    1704.5118    5351732.6    5373813.9    2743984.1 
      84    1745.7221    5351198.1    5373813.2    2744378.3 
      85    1787.4206    5350657.3    5373812.6    2744777.1 
      86    1829.6072    5350110.2      5373812    2745180.5 
      87    1872.2817    5349556.7    5373811.4    2745588.6 
      88    1915.4438    5348996.9    5373810.7    2746001.3 
      89    1959.0934    5348430.8    5373810.1    2746418.7 
      90    2003.2304    5347858.3    5373809.4    2746840.7 
      91    2047.8544    5347279.6    5373808.7    2747267.3 
      92    2092.9653    5346694.5      5373808    2747698.5 
      93    2138.5629    5346102.6    5373806.8    2748127.4 
      94    2184.6469    5345504.9    5373806.1    2748567.8 
      95    2231.2173    5344900.9    5373805.4    2749012.9 
      96    2278.2737    5344290.6    5373804.7    2749462.6 
      97    2325.8159      5343674      5373804    2749916.9 
      98    2373.8438    5343051.1    5373803.3    2750375.8 
      99    2422.3571    5342421.9    5373802.5    2750839.3 
     100    2471.3555    5341786.4    5373801.8    2751307.5 
     101     2520.839    5341144.6      5373801    2751780.2 
     102    2570.8072    5340496.5    5373800.3    2752257.5 
     103    2621.2599    5339842.2    5373799.5    2752739.4 
     104     2672.197    5339181.5    5373798.8    2753225.9 
     105    2723.6181    5338514.6      5373798    2753716.9 
     106     2775.523    5337841.4    5373797.2    2754212.6 
     107    2827.9115      5337162    5373796.4    2754712.8 
     108    2880.7834    5336476.2    5373795.6    2755217.6 
     109    2934.1384    5335784.2    5373794.8      2755727 
     110    2987.9763      5335086      5373794    2756240.9 
     111    3042.2969    5334381.4    5373793.2    2756759.4 
     112    3097.0998    5333670.2    5373791.9    2757275.6 
     113    3152.3849    5332953.2    5373791.1    2757803.2 
     114    3208.1519    5332229.8    5373790.1    2758334.5 
     115    3264.4005    5331500.3    5373789.3    2758871.2 
     116    3321.1305    5330764.5    5373788.4    2759412.4 
     117    3378.3416    5330022.5    5373787.5    2759958.2 
     118    3436.0336    5329274.2    5373786.7    2760508.5 
     119    3494.2063    5328519.7    5373785.8    2761063.4 
     120    3552.8592      5327759    5373784.9    2761622.8 
     121    3611.9923    5326992.1      5373784    2762186.7 
     122    3671.6052    5326218.9    5373783.1    2762755.2 
     123    3731.6976    5325439.5    5373782.2    2763328.1 
     124    3792.2693    5324653.9    5373781.2    2763905.6 
     125      3853.32    5323862.1    5373780.3    2764487.6 
     126    3914.8495    5323064.1    5373779.4    2765074.1 
     127    3976.8573    5322259.8    5373778.4    2765664.6 
     128    4039.3434    5321448.8    5373776.9    2766249.4 
     129    4102.3073    5320632.2    5373775.9    2766849.4 
     130    4165.7488    5319809.3      5373775    2767453.9 
     131    4229.6677    5318980.3      5373774    2768062.8 
     132    4294.0635    5318145.1      5373773    2768676.3 
     133    4358.9361    5317303.7      5373772    2769294.3 
     134    4424.2852    5316456.1      5373771    2769916.6 
     135    4490.1104    5315602.4      5373770    2770543.5 
     136    4556.4114    5314742.5      5373769    2771174.9 
     137     4623.188    5313876.4    5373767.9    2771810.6 
     138    4690.4398    5313004.1    5373766.9    2772450.9 
     139    4758.1665    5312125.7    5373765.9    2773095.6 
     140    4826.3679    5311241.1    5373764.8    2773744.8 
     141    4895.0436    5310350.4    5373763.7    2774398.3 
     142    4964.1933    5309453.5    5373762.7    2775056.4 
     143    5033.8168    5308550.5    5373761.6    2775718.8 
     144    5103.9136    5307641.4    5373760.5    2776385.8 
     145    5174.4835    5306726.1    5373759.4    2777057.1 
     146    5245.5261    5305804.6    5373758.3    2777732.8 
     147    5317.0411    5304877.1    5373757.2      2778413 
     148    5389.0283    5303943.4    5373756.1    2779097.6 
     149    5461.4872    5303003.6      5373755    2779785.7 
     150    5534.4176    5302057.7    5373753.8    2780479.1 
     151    5607.8191    5301105.6    5373752.7    2781176.8 
     152    5681.6914    5300147.5    5373751.6      2781879 
     153    5756.0341    5299183.3    5373750.4    2782585.6 
     154     5830.847    5298212.9    5373749.2    2783296.5 
     155    5906.1296    5297236.5    5373748.1    2784011.8 
     156    5981.8817      5296254    5373746.9    2784731.5 
     157    6058.1029    5295265.4    5373745.7    2785455.6 
     158    6134.7928    5294270.7    5373744.5      2786184 
     159    6211.9511    5293269.9    5373743.3    2786916.8 
     160    6289.5775    5292263.1    5373742.1    2787653.9 
     161    6367.6716    5291250.2    5373740.8    2788395.4 
     162     6446.233    5290231.2    5373739.6    2789141.2 
     163    6525.2614    5289206.2    5373738.4    2789891.4 
     164    6604.7565    5288175.1    5373737.1    2790645.9 
     165    6684.7178      5287138    5373735.8    2791404.7 
     166    6765.1451    5286094.8    5373734.6    2792167.9 
     167    6846.0378    5285045.6    5373733.3    2792935.4 
     168    6927.3958    5283990.4      5373732    2793707.1 
     169    7009.2186    5282929.1    5373730.7    2794483.2 
     170    7091.5058    5281861.8    5373729.4    2795263.6 
     171    7174.2571    5280788.5    5373728.1    2796048.3 
     172    7257.4721    5279709.1    5373726.8    2796837.3 
     173    7341.1504    5278623.8    5373725.5    2797630.6 
     174    7425.2917    5277532.4    5373724.1    2798428.1 
     175    7509.8955    5276435.1    5373722.8    2799229.9 
     176    7594.9615    5275331.7    5373721.4      2800036 
     177    7680.4893    5274222.4    5373720.1    2800846.4 
     178    7766.4785    5273107.1    5373718.7      2801661 
     179    7852.9287    5271985.3    5373716.9    2802473.5 
     180    7939.8395      5270858    5373715.5    2803296.6 
     181    8027.2106    5269724.8    5373714.1      2804124 
     182    8115.0415    5268585.5    5373712.7    2804955.5 
     183    8203.3318    5267440.4    5373711.2    2805791.4 
     184    8292.0812    5266289.2    5373709.8    2806631.4 
     185    8381.2892    5265132.1    5373708.4    2807475.7 
     186    8470.9554    5263969.1    5373706.9    2808324.1 
     187    8561.0795    5262800.1    5373705.5    2809176.8 
     188    8651.6609    5261625.2      5373704    2810033.7 
     189    8742.6994    5260444.4    5373702.5    2810895.3 
     190    8834.1945    5259257.6    5373701.1    2811760.5 
     191    8926.1457    5258064.9    5373699.6      2812630 
     192    9018.5528    5256866.3    5373698.1    2813503.6 
     193    9111.4151    5255661.8    5373696.6    2814381.4 
     194    9204.7324    5254451.4      5373695    2815263.4 
     195    9298.5042    5253235.1    5373693.5    2816149.6 
     196    9392.7301    5252012.9      5373692    2817039.9 
     197    9487.4096    5250784.8    5373690.4    2817934.3 
     198    9582.5423    5249550.9    5373688.9    2818832.9 
     199    9678.1279      5248311    5373687.3    2819735.6 
     200    9774.1658    5247065.3    5373685.7    2820642.4 
     201    9870.6556    5245813.7    5373684.1    2821553.4 
     202    9967.5969    5244556.3    5373682.5    2822468.5 
     203    10064.989      5243293    5373680.9    2823387.7 
     204    10162.832    5242023.9    5373679.3      2824311 
     205    10261.125    5240748.9    5373677.7    2825238.4 
     206    10359.868    5239468.1    5373676.1    2826169.9 
     207     10459.06    5238181.5    5373674.4    2827105.5 
     208    10558.701      5236889    5373672.8    2828045.2 
     209    10658.791    5235590.7    5373671.1    2828988.9 
     210    10759.328    5234286.3    5373669.1    2829932.1 
     211    10860.312    5232976.4    5373667.4    2830883.9 
     212    10961.744    5231660.7    5373665.7    2831839.9 
     213    11063.622    5230339.3    5373664.1      2832801 
     214    11165.947      5229012    5373662.4      2833765 
     215    11268.717      5227679    5373660.7    2834733.1 
     216    11371.932    5226339.7    5373658.6    2835697.9 
     217    11475.591    5224995.1    5373656.8      2836674 
     218    11579.695    5223644.7    5373655.1    2837654.1 
     219    11684.243    5222288.6    5373653.3    2838638.2 
     220    11789.234    5220926.7    5373651.5    2839626.3 
     221    11894.668    5219559.1    5373649.7    2840618.5 
     222    12000.544    5218185.7      5373648    2841614.6 
     223    12106.862    5216806.6    5373646.1    2842614.6 
     224    12213.622    5215421.7    5373644.3    2843618.7 
     225    12320.822    5214031.2    5373642.5    2844626.8 
     226    12428.462    5212634.9    5373640.7    2845638.8 
     227    12536.543    5211232.9    5373638.8    2846654.7 
     228    12645.063    5209825.2    5373636.9    2847673.7 
     229    12754.022    5208411.8      5373635    2848697.5 
     230    12863.419    5206992.7    5373633.1      2849725 
     231    12973.254    5205567.9    5373631.2    2850756.7 
     232    13083.527    5204137.5    5373629.3    2851792.3 
     233    13194.237    5202701.4    5373627.4    2852831.8 
     234    13305.383    5201259.6    5373625.5    2853875.2 
     235    13416.965    5199812.1    5373623.6    2854922.6 
     236    13528.982    5198359.1    5373621.6    2855973.8 
     237    13641.434    5196900.3    5373619.6    2857028.1 
     238    13754.321    5195435.9    5373617.6    2858087.1 
     239    13867.642    5193965.9    5373615.7      2859150 
     240    13981.396    5192489.9    5373613.3    2860211.7 
     241    14095.583    5191008.7    5373611.3    2861282.3 
     242    14210.202    5189521.8    5373609.3    2862356.7 
     243    14325.253    5188029.3    5373607.3      2863435 
     244    14440.736    5186531.3    5373605.2    2864517.1 
     245    14556.649    5185027.6    5373603.2      2865603 
     246    14672.993    5183518.4    5373601.1    2866692.8 
     247    14789.766    5182003.5    5373599.1    2867786.3 
     248    14906.969    5180483.1      5373597    2868883.7 
     249      15024.6    5178957.2    5373594.9    2869984.9 
     250    15142.659    5177425.7    5373592.8    2871089.8 
     251    15261.146    5175888.6    5373590.6    2872198.6 
     252    15380.061      5174346    5373588.5    2873311.1 
     253    15499.401    5172797.8    5373586.4    2874427.3 
     254    15619.168    5171244.1    5373584.1    2875546.2 
     255     15739.36    5169684.9      5373582      2876670 
     256    15859.977    5168120.1    5373579.8    2877797.5 
     257    15981.019    5166549.9    5373577.6    2878928.8 
     258    16102.484    5164974.1    5373575.4    2880063.8 
     259    16224.373    5163392.9    5373573.2    2881202.5 
     260    16346.684    5161806.2    5373570.9      2882345 
     261    16469.417      5160214    5373568.7    2883491.1 
     262    16592.573    5158616.3    5373566.4      2884641 
     263    16716.149    5157013.1    5373564.2    2885794.5 
     264    16840.146    5155404.4    5373561.7      2886950 
     265    16964.562    5153790.3    5373559.4    2888110.9 
     266    17089.398    5152170.8    5373557.1    2889275.5 
     267    17214.653    5150545.8    5373554.8    2890443.7 
     268    17340.327    5148915.5    5373552.5    2891615.6 
     269    17466.418    5147279.7    5373550.1    2892791.1 
     270    17592.926    5145638.4    5373547.8    2893970.3 
     271     17719.85    5143991.8    5373545.4    2895153.1 
     272    17847.191    5142339.8      5373543    2896339.5 
     273    17974.947    5140682.3    5373540.6    2897529.5 
     274    18103.118    5139019.5    5373538.2    2898723.1 
     275    18231.703    5137351.3    5373535.7    2899920.4 
     276    18360.701    5135677.7    5373533.3    2901121.2 
     277    18490.113    5133998.8    5373530.8    2902325.6 
     278    18619.938    5132314.5    5373528.4    2903533.5 
     279    18750.174    5130624.7    5373525.7    2904742.5 
     280    18880.822    5128929.7    5373523.2    2905957.6 
     281     19011.88    5127229.4    5373520.7    2907176.2 
     282    19143.349    5125523.8    5373518.2    2908398.4 
     283    19275.227    5123812.8    5373515.6    2909624.1 
     284    19407.514    5122096.5    5373513.1    2910853.3 
     285    19540.209    5120374.9    5373510.5      2912080 
     286    19673.312      5118648    5373507.9    2913316.3 
     287    19806.823    5116915.8    5373505.3      2914556 
     288     19940.74    5115178.4    5373502.7    2915799.3 
     289    20075.062    5113435.7    5373500.1      2917046 
     290    20209.791    5111687.7    5373497.4    2918296.2 
     291    20344.924    5109934.4    5373494.8    2919549.9 
     292    20480.461    5108175.9    5373492.1      2920807 
     293    20616.402    5106412.1    5373489.4    2922067.6 
     294    20752.745    5104643.2    5373486.7    2923331.6 
     295    20889.491    5102868.9      5373484      2924580 
     296    21026.639    5101089.5    5373481.2    2925850.9 
     297    21164.187    5099304.4      5373478    2927118.7 
     298    21302.136    5097514.6    5373475.2    2928396.4 
     299    21440.485    5095719.5    5373472.5    2929677.5 
     300    21579.233    5093919.3    5373469.7      2930962 
     301     21718.38    5092113.9    5373466.8    2932249.9 
     302    21857.925    5090303.3      5373464    2933541.1 
     303    21997.867    5088487.6    5373461.2    2934835.8 
     304    22138.206    5086666.7    5373458.3    2936133.7 
     305    22278.941    5084840.6    5373455.4      2937435 
     306    22420.071    5083009.4    5373452.5    2938739.8 
     307    22561.596    5081173.1    5373449.6    2940047.7 
     308    22703.515    5079331.7    5373446.7      2941359 
     309    22845.828    5077485.1    5373443.7    2942673.6 
     310    22988.534    5075633.5    5373440.7    2943991.6 
     311    23131.632    5073776.7    5373437.8    2945312.8 
     312    23275.121    5071914.9    5373434.8    2946637.3 
     313    23419.002    5070047.9    5373431.7    2947965.1 
     314    23563.273    5068175.9    5373428.7    2949296.2 
     315    23707.933    5066298.9    5373425.7    2950630.5 
     316    23852.983    5064416.3    5373422.1    2951961.5 
     317    23998.421    5062529.1      5373419    2953302.3 
     318    24144.246    5060636.9    5373415.9    2954646.4 
     319    24290.459    5058739.6    5373412.8    2955993.6 
     320    24437.058    5056837.4    5373409.7    2957344.1 
     321    24584.043    5054930.1    5373406.5    2958697.8 
     322    24731.413    5053017.8    5373403.3    2960054.7 
     323    24879.167    5051100.5    5373400.1    2961414.8 
     324    25027.306    5049178.2    5373396.9      2962778 
     325    25175.827    5047250.9    5373393.7    2964144.4 
     326    25324.731    5045318.7    5373390.4      2965514 
     327    25474.016    5043381.5    5373387.2    2966886.7 
     328    25623.683    5041439.3    5373383.9    2968262.6 
     329     25773.73    5039492.2    5373380.6    2969641.6 
     330    25924.157    5037540.2    5373377.2    2971023.8 
     331    26074.962    5035583.2    5373373.9      2972409 
     332    26226.147    5033621.3    5373370.5    2973797.4 
     333    26377.709    5031654.5    5373367.1    2975188.8 
     334    26529.648    5029682.8    5373363.7    2976583.5 
     335    26681.963    5027706.1    5373360.3    2977981.1 
     336    26834.655    5025724.6    5373356.9    2979381.8 
     337    26987.721    5023738.3    5373353.4    2980785.5 
     338    27141.161      5021747    5373349.9    2982192.3 
     339    27294.976    5019750.9    5373346.4    2983602.2 
     340    27449.163      5017750    5373342.9    2985015.1 
     341    27603.722    5015744.2    5373339.3      2986431 
     342    27758.653    5013733.5    5373335.8    2987849.9 
     343    27913.955    5011718.1    5373332.2    2989271.8 
     344    28069.627    5009697.8    5373328.6    2990696.7 
     345    28225.669    5007672.7    5373324.9    2992124.6 
     346    28382.079    5005642.8    5373321.3    2993555.5 
     347    28538.858    5003607.9    5373317.4      2994987 
     348    28696.004    5001568.5    5373313.7    2996423.8 
     349    28853.516    4999524.2      5373310    2997863.6 
     350    29011.395    4997475.3    5373306.3    2999306.3 
     351    29169.639    4995421.5    5373302.5    3000751.9 
     352    29328.247      4993363    5373298.7    3002200.5 
     353     29487.22    4991299.8    5373294.9    3003651.9 
     354    29646.556    4989231.8    5373291.1    3005106.3 
     355    29806.254    4987159.2    5373287.3    3006563.5 
     356    29966.313    4985081.8    5373283.5    3008024.5 
     357    30126.734    4982999.4    5373279.2    3009479.8 
     358    30287.515    4980912.6    5373275.2    3010945.7 
     359    30448.656    4978820.7    5373270.8    3012407.9 
     360    30610.156    4976724.5    5373266.9    3013879.5 
     361    30772.014    4974623.7    5373262.9    3015353.9 
     362    30934.229    4972518.3    5373258.9    3016831.1 
     363    31096.801    4970408.2    5373254.8    3018311.2 
     364    31259.729    4968293.5    5373250.8      3019794 
     365    31423.013    4966174.1    5373246.7    3021279.7 
     366    31586.651    4964050.1    5373242.6    3022768.1 
     367    31750.643    4961921.6    5373238.4    3024259.3 
     368    31914.988    4959788.4    5373234.3    3025753.3 
     369    32079.685    4957650.6    5373230.1    3027250.1 
     370    32244.734    4955508.3    5373225.9    3028749.5 
     371    32410.134    4953361.3    5373221.7    3030251.8 
     372    32575.884    4951209.8    5373217.4    3031756.7 
     373    32741.984    4949053.8    5373213.1    3033264.4 
     374    32908.432    4946893.2    5373208.8    3034774.8 
     375    33075.228    4944728.1    5373204.5    3036287.9 
     376    33242.372    4942558.5    5373200.1    3037803.6 
     377    33409.862    4940384.3    5373195.7    3039322.1 
     378    33577.698    4938205.6    5373191.3    3040842.6 
     379    33745.879    4936025.3    5373189.7    3042363.7 
     380    33914.404    4933837.6    5373185.2    3043890.2 
     381    34083.272    4931645.5    5373180.7    3045419.2 
     382    34252.484    4929448.9    5373176.2    3046950.9 
     383    34422.037    4927247.9    5373171.6    3048485.3 
     384    34591.932    4925042.4    5373167.1    3050022.2 
     385    34762.167    4922832.5    5373162.4    3051561.7 
     386    34932.743    4920618.1    5373157.8    3053103.8 
     387    35103.657    4918399.3    5373153.1    3054648.1 
     388    35274.909    4916176.1    5373148.5    3056195.4 
     389    35446.499    4913948.5    5373143.7    3057745.2 
     390    35618.426    4911716.5      5373139    3059297.6 
     391    35790.689    4909480.2    5373134.2    3060852.5 
     392    35963.287    4907239.4    5373129.4      3062410 
     393    36136.219    4904994.3    5373124.6      3063970 
     394    36309.485    4902744.9    5373119.7    3065532.5 
     395    36483.085    4900491.1    5373114.9    3067097.5 
     396    36657.016    4898232.9    5373109.9    3068656.7 
     397    36831.279    4895973.3    5373107.8    3070217.1 
     398    37005.872    4893706.5    5373102.8    3071789.5 
     399    37180.796    4891435.4    5373097.8    3073363.6 
     400    37356.048    4889160.1    5373092.7    3074940.9 
     401    37531.629    4886880.4    5373087.7    3076515.1 
     402    37707.537    4884596.4    5373082.5    3078096.6 
     403    37883.773    4882307.9      5373077    3079673.7 
     404    38060.334    4880015.5    5373071.9    3081260.8 
     405     38237.22    4877718.7    5373066.7      3082843 
     406    38414.431    4875417.8    5373061.4    3084434.9 
     407    38591.966    4873112.7    5373056.2    3086029.1 
     408    38769.824    4870803.3    5373050.9    3087618.7 
     409    38948.004    4868489.7    5373045.6    3089210.2 
     410    39126.505      4866172    5373040.2    3090811.5 
     411    39305.327      4863850    5373034.8    3092415.2 
     412    39484.469    4861523.9    5373029.4    3094021.2 
     413    39663.929    4859193.6      5373024    3095629.5 
     414    39843.708    4856859.1    5373018.5    3097240.1 
     415    40023.805    4854520.6      5373013      3098853 
     416    40204.218    4852177.8    5373007.4    3100468.2 
     417    40384.947      4849831    5373001.8    3102085.7 
     418    40565.991      4847480    5372996.2    3103705.4 
     419    40747.349    4845124.9    5372990.5    3105327.4 
     420    40929.022    4842765.7    5372984.8    3106951.6 
     421    41111.006    4840402.5    5372979.1    3108578.1 
     422    41293.303    4838035.1    5372973.4    3110206.9 
     423    41475.911    4835663.7    5372967.5    3111837.4 
     424    41658.829    4833288.2    5372961.7    3113470.4 
     425    41842.057    4830908.7    5372955.8    3115105.8 
     426    42025.593    4828525.2    5372949.9    3116743.3 
     427    42209.438    4826137.6      5372944      3118383 
     428    42393.589      4823746      5372938    3120024.9 
     429    42578.048    4821350.4      5372932    3121668.9 
     430    42762.811    4818950.8      5372926    3123315.2 
     431     42947.88    4816547.3    5372919.9    3124963.4 
     432    43133.252    4814139.7    5372913.8    3126613.9 
     433    43318.927    4811728.2    5372907.6    3128266.4 
     434    43504.905    4809312.7    5372901.4    3129921.1 
     435    43691.185    4806893.3    5372895.2    3131577.8 
     436    43877.765      4804470    5372888.9    3133236.2 
     437    44064.645    4802042.6    5372882.5    3134895.9 
     438    44251.824    4799611.4    5372876.1    3136559.3 
     439    44439.302    4797176.2    5372869.6    3138222.9 
     440    44627.077    4794737.3    5372863.2      3139890 
     441    44815.148    4792294.4    5372856.7    3141558.6 
     442    45003.516    4789847.6    5372850.2    3143229.7 
     443    45192.179      4787397    5372843.6    3144902.8 
     444    45381.135    4784942.6      5372837    3146577.9 
     445    45570.386    4782484.3    5372830.4    3148257.6 
     446    45759.929    4780022.2    5372823.7    3149936.7 
     447    45949.764    4777556.2      5372817    3151617.8 
     448    46139.889    4775086.5    5372810.3    3153300.8 
     449    46330.305    4772612.9    5372803.5    3154985.7 
     450     46521.01    4770135.5    5372796.6    3156675.4 
     451    46712.004    4767654.4    5372789.8    3158364.2 
     452    46903.286    4765169.5    5372782.8    3160054.8 
     453    47094.854    4762680.8    5372775.8    3161746.6 
     454    47286.709    4760188.3    5372768.7      3163440 
     455    47478.848    4757692.1    5372761.7    3165136.4 
     456    47671.272    4755192.3    5372754.6    3166834.7 
     457     47863.98    4752688.7    5372747.4    3168534.9 
     458    48056.971    4750181.4    5372740.2    3170228.3 
     459    48250.243    4747670.4      5372733    3171932.2 
     460    48443.797    4745155.7    5372725.7    3173637.9 
     461     48637.63    4742637.4    5372718.4      3175338 
     462    48831.743    4740114.4    5372710.1    3177033.4 
     463    49026.135    4737588.7    5372702.7      3178738 
     464    49220.805    4735059.4    5372695.3      3180451 
     465    49415.751    4732526.5    5372687.8    3182165.7 
     466    49610.974    4729989.9    5372680.2    3183882.2 
     467    49806.472    4727449.7    5372672.6    3185600.4 
     468    50002.244    4724905.9      5372665    3187313.5 
     469     50198.29    4722358.5    5372657.3    3189027.6 
     470    50394.609    4719807.6    5372649.6    3190751.1 
     471      50591.2      4717253    5372641.8    3192469.3 
     472    50788.061    4714694.9      5372634    3194196.1 
     473    50985.193    4712133.3    5372626.1    3195924.8 
     474    51182.595    4709568.1    5372618.2    3197655.1 
     475    51380.265    4706999.4    5372610.2      3199387 
     476    51578.203    4704427.2    5372602.2    3201120.7 
     477    51776.408    4701851.4    5372594.1    3202855.9 
     478    51974.879    4699272.2      5372586    3204592.5 
     479    52173.615    4696689.8    5372578.2    3206336.8 
     480    52372.616    4694103.6    5372569.9      3208077 
     481     52571.88      4691514    5372561.7    3209818.8 
     482    52771.407    4688920.9    5372553.3    3211562.2 
     483    52971.195    4686324.1    5372544.8    3213304.6 
     484    53171.245    4683724.1    5372536.3    3215051.2 
     485    53371.555    4681120.7    5372527.9    3216799.4 
     486    53572.124    4678513.9    5372519.3    3218549.1 
     487    53772.952    4675903.6    5372510.7    3220300.3 
     488    53974.037      4673290    5372502.1    3222053.1 
     489     54175.38      4670673    5372493.4    3223807.5 
     490    54376.978    4668052.3    5372484.3    3225555.7 
     491    54578.831    4665428.5    5372475.5      3227313 
     492    54780.939    4662801.5    5372466.6    3229071.9 
     493      54983.3    4660171.1    5372457.7    3230832.2 
     494    55185.913    4657537.3    5372448.8      3232594 
     495    55388.778    4654900.3    5372439.8    3234357.3 
     496    55591.894    4652259.9    5372430.7      3236122 
     497     55795.26    4649616.2    5372421.6    3237888.1 
     498    55998.876    4646968.9      5372412    3239648.4 
     499    56202.739    4644318.7    5372402.8    3241417.4 
     500     56406.85    4641664.6    5372392.8    3243175.9 
     501    56611.208    4639007.9    5372383.5    3244947.7 
     502    56815.811      4636348    5372374.1    3246720.9 
     503    57020.659    4633684.8    5372364.6    3248495.6 
     504    57225.751    4631018.3    5372355.1    3250271.5 
     505    57431.086    4628348.7    5372345.5    3252048.9 
     506    57636.664    4625675.9    5372335.9    3253827.6 
     507    57842.483    4622999.6    5372325.8      3255603 
     508    58048.543    4620320.4    5372316.1    3257384.4 
     509    58254.842    4617638.1    5372306.3      3259161 
     510     58461.38    4614952.5    5372296.4      3260945 
     511    58668.157    4612263.6    5372286.1    3262722.7 
     512     58875.17    4609571.8    5372276.1    3264509.3 
     513     59082.42    4606876.9      5372266    3266297.2 
     514    59289.905    4604178.9    5372255.9    3268086.3 
     515    59497.625    4601477.8    5372245.7    3269876.7 
     516    59705.578    4598773.2    5372235.2    3271663.4 
     517    59913.764      4596066    5372224.8    3273456.3 
     518    60122.183    4593355.6    5372214.5    3275250.3 
     519    60330.832    4590642.2      5372204    3277045.6 
     520    60539.712    4587925.7    5372193.5    3278842.1 
     521    60748.821    4585206.2    5372182.9    3280638.6 
     522    60958.159    4582483.6    5372172.2    3282437.5 
     523    61167.724    4579758.1    5372161.5    3284237.5 
     524    61377.516    4577029.6    5372150.8    3286038.7 
     525    61587.534      4574298    5372139.9      3287841 
     526    61797.777    4571563.5      5372129    3289644.5 
     527    62008.245      4568826    5372118.1    3291449.1 
     528    62218.936    4566085.6      5372107    3293254.9 
     529    62429.849    4563342.2      5372096    3295042.7 
     530    62640.984    4560595.9    5372084.8    3296850.6 
     531     62852.34    4557846.6    5372073.6    3298659.7 
     532    63063.915    4555094.4    5372062.3    3300469.8 
     533     63275.71    4552339.4    5372050.9      3302281 
     534    63487.722    4549581.4    5372039.5    3304093.2 
     535    63699.952    4546820.2    5372027.6    3305901.9 
     536    63912.399    4544056.5      5372016      3307716 
     537    64125.061    4541289.9    5372004.4    3309531.4 
     538    64337.938    4538520.4    5371992.7    3311347.7 
     539    64551.028    4535748.1    5371980.9    3313165.1 
     540    64764.332      4532973      5371969    3314983.4 
     541    64977.847    4530195.1    5371957.1    3316802.8 
     542    65191.574      4527414    5371944.8    3318618.5 
     543    65405.511    4524630.5    5371932.7    3320439.8 
     544    65619.658    4521844.1    5371920.6    3322262.1 
     545    65834.013      4519055    5371908.4    3324085.2 
     546    66048.576    4516263.1    5371896.1    3325909.3 
     547    66263.346    4513468.5    5371883.7    3327734.4 
     548    66478.322    4510671.1    5371871.2    3329560.3 
     549    66693.503      4507871    5371858.7    3331387.1 
     550    66908.889    4505068.2    5371846.1    3333214.8 
     551    67124.478    4502262.7    5371833.5    3335043.4 
     552    67340.269    4499454.4    5371820.7    3336872.9 
     553    67556.262    4496643.3    5371807.7    3338700.6 
     554    67772.456    4493829.7    5371794.8    3340531.7 
     555    67988.849    4491013.4    5371781.8    3342361.6 
     556    68205.442    4488194.5    5371768.7      3344191 
     557    68422.233    4485372.9    5371755.6    3346024.7 
     558    68639.221    4482548.7    5371742.4    3347859.2 
     559    68856.406    4479721.9    5371729.1    3349694.5 
     560    69073.786    4476892.4    5371715.7    3351530.5 
     561    69291.361    4474060.4    5371702.3    3353367.3 
     562    69509.129    4471225.7    5371688.7    3355204.9 
     563    69727.091    4468388.5    5371675.1    3357043.3 
     564    69945.245    4465548.7    5371661.4    3358882.4 
     565     70163.59    4462706.4    5371647.7    3360722.2 
     566    70382.125    4459861.5    5371633.8    3362562.8 
     567    70600.849    4457014.1    5371619.9    3364403.5 
     568    70819.763    4454164.1    5371605.8    3366245.5 
     569    71038.864    4451311.2    5371591.3    3368081.7 
     570    71258.152    4448456.2    5371577.1    3369926.1 
     571    71477.625    4445598.7    5371562.8    3371770.1 
     572    71697.284    4442738.8    5371548.5    3373614.8 
     573    71917.127    4439876.3      5371534    3375459.4 
     574    72137.154    4437011.4    5371519.4    3377305.3 
     575    72357.363    4434144.1    5371504.8    3379151.7 
     576    72577.753    4431274.3    5371490.1      3380999 
     577    72798.325    4428402.1    5371475.3    3382846.8 
     578    73019.076    4425527.5    5371460.4    3384695.3 
     579    73240.006    4422650.5    5371445.5    3386542.7 
     580    73461.114      4419771    5371430.4    3388392.4 
     581      73682.4    4416889.2    5371415.3    3390242.5 
     582    73903.862      4414005      5371400    3392093.3 
     583    74125.499    4411118.5    5371384.7    3393943.4 
     584    74347.311    4408229.6    5371369.3    3395795.2 
     585    74569.297    4405338.3    5371353.8    3397647.3 
     586    74791.456    4402444.8    5371338.2    3399500.1 
     587    75013.786    4399548.9    5371322.5    3401353.2 
     588    75236.288    4396650.7    5371306.7    3403207.2 
     589    75458.961    4393750.2    5371290.9    3405061.5 
     590    75681.802    4390847.4    5371274.9    3406916.3 
     591    75904.812    4387942.3    5371258.9    3408771.7 
     592     76127.99      4385035    5371242.7    3410627.5 
     593    76351.334    4382125.4    5371226.5    3412483.8 
     594    76574.845    4379213.6    5371210.1    3414340.4 
     595     76798.52    4376299.5    5371193.7    3416197.6 
     596     77022.36    4373383.3    5371177.2    3418055.1 
     597    77246.363    4370464.8    5371160.5    3419913.1 
     598    77470.528      4367544    5371143.7      3421770 
     599    77694.855    4364621.1    5371126.9    3423628.7 
     600    77919.343    4361695.2    5371109.2    3425476.8 
     601    78143.991      4358768    5371092.2    3427336.3 
     602    78368.797    4355838.6    5371075.1    3429196.2 
     603    78593.762    4352907.1    5371057.9    3431056.4 
     604    78818.883    4349973.4    5371040.5      3432916 
     605    79044.162    4347037.6    5371023.1    3434776.9 
     606    79269.595    4344099.7    5371005.6    3436638.1 
     607    79495.183    4341159.6      5370988    3438499.6 
     608    79720.925    4338217.5    5370970.3    3440361.4 
     609     79946.82    4335273.5    5370952.6    3442225.5 
     610    80172.867    4332327.2    5370934.7    3444087.9 
     611    80399.065    4329378.9    5370916.6    3445949.9 
     612    80625.413    4326428.5    5370898.5    3447812.9 
     613    80851.911    4323476.1    5370880.3      3449676 
     614    81078.557    4320521.6    5370861.9    3451539.5 
     615    81305.351      4317565    5370843.3    3453400.3 
     616    81532.291    4314606.5    5370824.8    3455264.2 
     617    81759.378      4311646    5370806.1    3457128.3 
     618     81986.61    4308683.6    5370787.4    3458992.6 
     619    82213.985      4305719    5370768.4    3460855.4 
     620    82441.505    4302752.6    5370749.4    3462720.1 
     621    82669.166    4299784.3    5370730.3    3464584.9 
     622     82896.97      4296814    5370711.1    3466449.9 
     623    83124.914    4293841.8    5370691.8    3468315.1 
     624    83352.997    4290867.6    5370672.4    3470180.4 
     625     83581.22    4287891.6    5370652.9    3472045.8 
     626    83809.582    4284913.6    5370633.2    3473911.4 
     627     84038.08    4281933.7    5370613.5    3475777.1 
     628    84266.715      4278952    5370593.6    3477642.1 
     629    84495.485    4275968.4    5370573.7      3479508 
     630     84724.39      4272983    5370553.6    3481373.5 
     631    84953.429    4269995.7    5370533.4    3483239.5 
     632    85182.601    4267006.5    5370513.1    3485105.7 
     633    85411.905    4264015.5    5370492.7    3486971.8 
     634     85641.34    4261022.8    5370472.1      3488838 
     635    85870.906    4258028.2    5370451.5    3490704.3 
     636    86100.601    4255031.8    5370430.7    3492570.6 
     637    86330.425    4252033.6    5370409.8    3494436.9 
     638    86560.377    4249033.7    5370388.8    3496303.2 
     639    86790.455      4246032    5370367.7    3498169.5 
     640     87020.66    4243028.1      5370346      3500029 
     641     87250.99    4240022.9    5370324.6    3501895.3 
     642    87481.445    4237015.9    5370303.1    3503760.8 
     643    87712.023    4234007.3    5370281.5      3505627 
     644    87942.723    4230996.8    5370259.7    3507491.9 
     645    88173.546    4227984.8    5370237.8      3509358 
     646    88404.489      4224971    5370215.9    3511224.1 
     647    88635.553    4221955.6    5370193.8      3513090 
     648    88866.735    4218937.7    5370170.8    3514945.1 
     649    89098.037    4215918.8    5370148.3    3516808.3 
     650    89329.455    4212898.4    5370125.8      3518674 
     651    89560.991    4209876.4    5370103.2    3520539.6 
     652    89792.642    4206852.1    5370079.9    3522395.2 
     653    90024.408    4203826.9    5370057.1    3524260.6 
     654    90256.288    4200799.7    5370033.8    3526118.3 
     655    90488.282    4197771.2    5370010.8    3527983.3 
     656    90720.388    4194740.8    5369987.2    3529840.4 
     657    90952.605    4191709.2    5369963.8    3531705.1 
     658    91184.934      4188676    5369940.3    3533569.5 
     659    91417.372    4185641.2    5369916.8    3535433.9 
     660    91649.919    4182604.9      5369893      3537298 
     661    91882.574    4179567.1    5369869.2    3539161.9 
     662    92115.337    4176527.8    5369845.2    3541025.4 
     663    92348.206    4173487.2    5369821.3    3542891.7 
     664    92581.181    4170444.8      5369797    3544754.2 
     665    92814.261    4167400.9    5369772.6    3546616.9 
     666    93047.445    4164355.6    5369748.1      3548482 
     667    93280.731    4161308.9    5369723.5    3550344.6 
     668     93514.12    4158260.6    5369698.7    3552206.9 
     669    93747.611    4155210.9    5369673.8    3554068.9 
     670    93981.202    4152159.7    5369648.6      3555929 
     671    94214.892    4149107.1    5369623.4    3557790.2 
     672    94448.682    4146053.2    5369598.1    3559651.3 
     673    94682.569    4142997.8    5369572.7    3561512.1 
     674    94916.554      4139941    5369547.1    3563372.6 
     675    95150.635    4136882.9    5369521.3    3565232.8 
     676    95384.812    4133823.3    5369495.5    3567092.6 
     677    95619.084    4130762.4    5369469.4    3568951.7 
     678    95853.449    4127700.1    5369443.3    3570810.7 
     679    96087.907    4124636.1    5369416.6    3572660.8 
     680    96322.458    4121571.2    5369390.1    3574519.2 
     681      96557.1    4118504.9    5369363.5    3576376.1 
     682    96791.832    4115437.6    5369337.1    3578237.2 
     683    97026.654    4112368.7    5369310.3    3580094.4 
     684    97261.565    4109298.5    5369283.3    3581951.2 
     685    97496.564    4106227.1    5369256.1    3583807.6 
     686     97731.65    4103154.3    5369228.8    3585663.5 
     687    97966.822    4100080.3    5369201.4    3587517.7 
     688     98202.08    4097005.1    5369173.8    3589372.8 
     689    98437.422    4093928.6    5369146.1    3591227.4 
     690    98672.849    4090850.9    5369118.2    3593081.3 
     691    98908.358    4087771.9    5369090.2      3594935 
     692     99143.95    4084691.7      5369062    3596787.7 
     693    99379.623    4081610.3    5369033.6    3598639.7 
     694    99615.376    4078527.7    5369005.1    3600491.9 
     695    99851.209      4075444    5368976.5    3602343.5 
     696    100087.12    4072359.1    5368947.7    3604193.8 
     697    100323.11      4069273    5368918.8    3606044.4 
     698    100559.18    4066185.8    5368889.8    3607894.5 
     699    100795.32    4063097.4    5368860.5    3609744.1 
     700    101031.54    4060007.9    5368831.2    3611593.1 
     701    101267.84    4056917.3    5368801.6    3613441.5 
     702     101504.2    4053825.7    5368772.1    3615291.4 
     703    101740.64    4050732.9    5368742.3    3617138.7 
     704    101977.16    4047638.9    5368712.3    3618985.5 
     705    102213.74    4044543.8      5368682    3620830.6 
     706     102450.4    4041447.5    5368651.5    3622672.7 
     707    102687.12    4038350.4      5368621    3624517.1 
     708    102923.92    4035252.1    5368590.4    3626360.8 
     709    103160.78    4032152.9    5368559.6    3628204.5 
     710    103397.71    4029052.6    5368528.7    3630047.5 
     711    103634.71    4025951.3    5368497.6    3631889.9 
     712    103871.77      4022849    5368466.3    3633731.6 
     713     104108.9    4019745.5    5368434.7    3635570.3 
     714    104346.09    4016641.2    5368403.1    3637410.7 
     715    104583.34    4013535.9    5368371.4    3639250.4 
     716    104820.66    4010429.7    5368339.5    3641089.5 
     717    105058.04    4007322.5    5368307.4    3642927.8 
     718    105295.48    4004214.3    5368275.2    3644765.5 
     719    105532.98    4001105.2    5368242.8    3646602.2 
     720    105770.54    3997994.9      5368210    3648435.8 
     721    106008.16    3994884.2    5368177.5    3650273.4 
     722    106245.83    3991772.2    5368144.5    3652106.4 
     723    106483.57    3988658.4    5368110.5    3653923.5 
     724    106721.35    3985544.7    5368077.2    3655756.8 
     725     106959.2    3982430.1    5368043.7    3657588.4 
     726     107197.1    3979314.6    5368010.2    3659420.1 
     727    107435.05    3976198.3    5367976.4    3661251.1 
     728    107673.05    3973081.1    5367942.5    3663081.3 
     729    107911.11    3969963.1    5367908.4    3664910.7 
     730    108149.22    3966844.3    5367874.2    3666739.3 
     731    108387.37    3963724.6    5367839.7    3668565.9 
     732    108625.58    3960604.1    5367805.1    3670392.8 
     733    108863.84    3957482.8    5367770.3      3672219 
     734    109102.14    3954360.7    5367735.4    3674044.3 
     735     109340.5    3951237.8    5367700.2    3675868.8 
     736     109578.9    3948114.1    5367664.9    3677692.4 
     737    109817.34    3944989.7    5367629.5    3679515.3 
     738    110055.83    3941864.5    5367593.8    3681337.2 
     739    110294.36    3938738.5      5367558      3683158 
     740    110532.94    3935611.9    5367521.9    3684978.1 
     741    110771.56    3932484.4    5367485.8    3686797.4 
     742    111010.22    3929356.3    5367449.4    3688615.8 
     743    111248.92    3926227.5    5367412.8    3690433.3 
     744    111487.67    3923097.9    5367376.1    3692249.6 
     745    111726.45    3919967.5      5367339    3694058.3 
     746    111965.27    3916836.5    5367301.9    3695872.1 
     747    112204.13      3913705    5367264.6      3697686 
     748    112443.02    3910572.7    5367227.1    3699483.7 
     749    112681.95    3907439.8    5367189.5    3701293.7 
     750    112920.92    3904306.2    5367151.6    3703092.2 
     751    113159.92      3901172    5367113.6      3704902 
     752    113398.96    3898037.2    5367075.4    3706711.1 
     753    113638.03    3894901.8      5367037    3708519.1 
     754    113877.13    3891765.8    5366998.4    3710326.3 
     755    114116.26    3888629.1    5366959.7    3712132.3 
     756    114355.42    3885491.9    5366920.7    3713937.5 
     757    114594.62    3882354.1    5366881.6    3715741.6 
     758    114833.84    3879215.8    5366842.3    3717544.7 
     759    115073.09    3876076.8    5366802.7    3719346.3 
     760    115312.37    3872937.3      5366763    3721147.1 
     761    115551.68    3869797.3    5366723.1    3722947.5 
     762    115791.01    3866656.8      5366683    3724746.5 
     763    116030.37    3863515.7    5366642.8    3726544.4 
     764    116269.75    3860374.1    5366602.3      3728341 
     765    116509.16      3857232    5366561.6    3730135.8 
     766    116748.59    3854089.4    5366520.7    3731930.3 
     767    116988.04    3850946.4    5366479.6    3733723.9 
     768    117227.51    3847802.8    5366438.4    3735516.4 
     769    117467.01    3844658.8    5366396.9    3737307.7 
     770    117706.52    3841514.3    5366355.3    3739098.1 
     771    117946.05    3838369.4    5366313.4    3740887.3 
     772    118185.61      3835224    5366271.4    3742675.3 
     773    118425.18    3832078.3    5366229.2    3744463.2 
     774    118664.77      3828932    5366186.6    3746246.4 
     775    118904.37    3825785.3    5366143.9    3748031.1 
     776    119143.99    3822638.3    5366101.1    3749814.7 
     777    119383.62    3819490.9      5366058    3751596.8 
     778    119623.27      3816343    5366014.7      3753378 
     779    119862.93    3813194.8    5365971.3    3755158.1 
     780    120102.61    3810046.3    5365927.6      3756937 
     781     120342.3    3806897.4    5365883.7    3758714.6 
     782    120581.99    3803748.1    5365839.6    3760491.1 
     783     120821.7    3800598.4    5365795.3    3762265.1 
     784    121061.42    3797448.5    5365750.8    3764039.2 
     785    121301.15    3794297.8    5365705.6    3765817.3 
     786    121540.88    3791147.2    5365660.7      3767589 
     787    121780.62    3787996.3    5365615.6    3769359.4 
     788    122020.37    3784844.8    5365569.9    3771121.5 
     789    122260.13    3781692.9    5365523.9    3772877.5 
     790    122499.89    3778541.1    5365478.1    3774630.8 
     791    122739.65      3775389    5365432.2    3776394.3 
     792    122979.42    3772236.8      5365386    3778158.6 
     793    123219.19    3769084.2    5365339.6    3779921.5 
     794    123458.96    3765931.5      5365293    3781670.9 
     795    123698.74    3762778.4    5365246.2    3783431.3 
     796    123938.51    3759625.2    5365199.1    3785187.4 
     797    124178.29    3756471.8    5365151.9    3786945.2 
     798    124418.06    3753318.1    5365104.4    3788701.8 
     799    124657.84    3750164.3    5365056.7      3790457 
     800    124897.61    3747010.2    5365008.8    3792210.9 
     801    125137.38      3743856    5364960.7    3793963.5 
     802    125377.14    3740701.6    5364912.4    3795714.8 
     803     125616.9      3737547    5364863.8    3797464.7 
     804    125856.66    3734392.3      5364815    3799213.3 
     805    126096.41    3731237.4      5364766    3800960.2 
     806    126336.15    3728082.4    5364716.8    3802706.1 
     807    126575.89    3724927.3    5364667.4    3804450.7 
     808    126815.62      3721772    5364617.7    3806185.7 
     809    127055.34    3718616.7    5364567.8    3807927.5 
     810    127295.05    3715461.2    5364517.7      3809668 
     811    127534.75    3712305.6    5364467.4      3811407 
     812    127774.44      3709150    5364416.8    3813144.7 
     813    128014.12    3705994.2      5364366      3814881 
     814    128253.79    3702838.4      5364315    3816615.8 
     815    128493.44    3699682.6    5364263.8    3818340.6 
     816    128733.08    3696526.2    5364211.8    3820057.8 
     817    128972.71    3693370.2    5364160.1    3821788.4 
     818    129212.32    3690214.2    5364108.2    3823517.5 
     819    129451.91    3687058.2      5364056    3825245.2 
     820    129691.49    3683902.2    5364003.6    3826972.5 
     821    129931.05    3680746.1      5363951    3828696.6 
     822     130170.6      3677590    5363898.1    3830420.1 
     823    130410.12      3674434      5363845      3832142 
     824    130649.63    3671277.9    5363791.7    3833862.5 
     825    130889.12    3668121.9    5363738.2    3835581.5 
     826    131128.59    3664965.9    5363684.4      3837299 
     827    131368.03      3661810    5363630.4    3839013.4 
     828    131607.45    3658654.1    5363576.1      3840728 
     829    131846.86    3655498.3    5363521.6    3842441.1 
     830    132086.23    3652342.5    5363466.9    3844152.6 
     831    132325.59    3649186.8    5363411.9    3845861.7 
     832    132564.92    3646031.1    5363356.7    3847570.2 
     833    132804.22    3642875.6    5363301.2    3849277.3 
     834     133043.5    3639720.2    5363245.5    3850982.8 
     835    133282.75    3636564.8    5363189.6    3852686.7 
     836    133521.97    3633409.6    5363133.5    3854387.7 
     837    133761.17    3630254.5      5363077    3856087.8 
     838    134000.34    3627099.5    5363020.4    3857787.2 
     839    134239.48    3623944.7    5362963.5    3859484.9 
     840    134478.58      3620790    5362906.3    3861181.2 
     841    134717.66    3617635.4    5362848.9      3862875 
     842    134956.71      3614481    5362791.2    3864560.9 
     843    135195.72    3611326.8    5362733.4    3866252.2 
     844     135434.7    3608172.7    5362675.2    3867941.3 
     845    135673.65    3605018.9    5362616.8    3869628.5 
     846    135912.56    3601865.2    5362558.1    3871314.5 
     847    136151.44    3598711.7    5362499.3    3872999.7 
     848    136390.29    3595558.5    5362440.2    3874683.2 
     849    136629.09    3592405.5    5362380.8    3876364.9 
     850    136867.87    3589252.7    5362321.2    3878045.2 
     851     137106.6    3586100.2    5362261.4    3879723.9 
     852     137345.3    3582947.8    5362201.3    3881400.9 
     853    137583.95    3579795.8    5362140.9    3883075.5 
     854    137822.57      3576644    5362080.3    3884749.3 
     855    138061.15    3573492.5    5362019.5    3886420.8 
     856    138299.69    3570341.2    5361958.4    3888091.3 
     857    138538.18    3567190.4    5361897.2    3889761.6 
     858    138776.64    3564039.7    5361835.5    3891428.1 
     859    139015.05    3560889.3    5361773.6    3893093.6 
     860    139253.42    3557739.2    5361711.5    3894757.4 
     861    139491.74    3554589.3    5361649.1      3896418 
     862    139730.02    3551439.8    5361586.4    3898078.5 
     863    139968.25    3548290.7    5361523.5    3899737.3 
     864    140206.44    3545141.9    5361460.4    3901394.4 
     865    140444.59    3541993.4    5361396.9    3903049.8 
     866    140682.68    3538845.3    5361333.3    3904703.5 
     867    140920.73    3535697.6    5361269.3    3906355.5 
     868    141158.73    3532550.2    5361205.1    3908005.8 
     869    141396.68    3529403.1    5361140.7    3909654.3 
     870    141634.58    3526256.5    5361075.9    3911301.1 
     871    141872.43    3523110.3      5361011    3912946.2 
     872    142110.23    3519964.4    5360945.7    3914589.6 
     873    142347.98      3516819    5360880.2    3916231.2 
     874    142585.68    3513673.9    5360814.4    3917871.1 
     875    142823.32    3510529.3    5360748.4    3919509.2 
     876    143060.91    3507385.1    5360682.1    3921145.7 
     877    143298.45    3504241.3    5360615.5      3922780 
     878    143535.93      3501098    5360548.7    3924412.9 
     879    143773.36    3497955.1    5360481.6      3926044 
     880    144010.73    3494812.7    5360414.2    3927673.4 
     881    144248.05    3491670.8    5360346.6    3929300.9 
     882    144485.31    3488529.3    5360278.7    3930926.6 
     883    144722.51    3485388.3    5360210.5    3932550.6 
     884    144959.65    3482247.7    5360142.1    3934172.7 
     885    145196.73    3479107.7    5360073.4    3935793.2 
     886    145433.75    3475968.2    5360004.4    3937411.7 
     887    145670.72    3472829.2    5359935.1    3939028.5 
     888    145907.62    3469690.6    5359865.6    3940643.5 
     889    146144.46    3466552.6    5359795.8    3942256.6 
     890    146381.24    3463415.2    5359725.7    3943874.1 
     891    146617.96    3460278.3    5359655.4    3945483.6 
     892    146854.62    3457141.9    5359584.7    3947090.9 
     893    147091.21      3454006    5359513.9    3948696.7 
     894    147327.73    3450870.7    5359442.7    3950300.7 
     895     147564.2      3447736    5359371.2    3951902.9 
     896    147800.59    3444601.9    5359299.5    3953503.2 
     897    148036.92    3441468.3    5359227.5    3955101.5 
     898    148273.19    3438335.3    5359155.2    3956698.1 
     899    148509.38      3435203    5359082.7    3958292.8 
     900    148745.51    3432071.2    5359009.9    3959885.7 
     901    148981.57      3428940    5358936.7    3961476.7 
     902    149217.56    3425809.4    5358863.4    3963065.8 
     903    149453.49      3422679    5358789.3      3964641 
     904    149689.34    3419549.7    5358715.3      3966226 
     905    149925.12      3416421    5358641.1    3967809.5 
     906    150160.83      3413293    5358566.5      3969391 
     907    150396.47    3410165.1    5358491.3    3970964.2 
     908    150632.03    3407038.3    5358416.2    3972540.1 
     909    150867.53      3403912    5358340.5    3974111.4 
     910    151102.95    3400786.6    5358264.9    3975685.4 
     911    151338.29    3397661.8    5358188.9    3977257.2 
     912    151573.56    3394537.8    5358112.7    3978827.3 
     913    151808.76    3391414.4    5358036.2    3980395.6 
     914    152043.88    3388291.8    5357959.4    3981961.8 
     915    152278.92    3385169.8    5357882.4    3983526.2 
     916    152513.89    3382048.6      5357805    3985088.6 
     917    152748.77    3378928.1    5357727.4      3986649 
     918    152983.58    3375808.2    5357649.4      3988207 
     919    153218.32    3372689.2    5357571.2    3989763.2 
     920    153452.97    3369570.8    5357492.7    3991317.8 
     921    153687.54    3366453.2    5357413.9    3992870.5 
     922    153922.04    3363336.4    5357334.9    3994421.2 
     923    154156.45    3360220.3    5357255.5    3995963.4 
     924    154390.78      3357105    5357175.8      3997509 
     925    154625.03    3353990.4    5357095.9    3999053.6 
     926    154859.19    3350876.6    5357015.6    4000596.4 
     927    155093.28    3347763.7    5356935.1    4002137.3 
     928    155327.28    3344651.5    5356854.3    4003676.2 
     929    155561.19    3341540.1    5356773.2    4005213.1 
     930    155795.02    3338429.5    5356691.8      4006748 
     931    156028.77    3335319.6      5356610    4008279.6 
     932    156262.43    3332210.7      5356528    4009810.6 
     933       156496    3329102.5    5356445.8    4011339.5 
     934    156729.49    3325995.2    5356363.2    4012866.4 
     935    156962.89    3322888.7    5356280.3    4014391.2 
     936     157196.2    3319783.1    5356197.1    4015914.1 
     937    157429.43    3316678.3    5356113.7      4017435 
     938    157662.56    3313574.4    5356029.9    4018953.9 
     939    157895.61    3310471.3    5355945.9    4020469.5 
     940    158128.57    3307369.1    5355861.5    4021984.3 
     941    158361.43    3304267.8    5355776.9    4023496.2 
     942    158594.21    3301167.3    5355691.9      4025007 
     943    158826.89    3298067.8    5355606.7    4026515.7 
     944    159059.48    3294969.1    5355521.1    4028022.4 
     945    159291.98    3291871.2    5355435.1    4029525.3 
     946    159524.38    3288774.3      5355349    4031027.9 
     947     159756.7    3285678.4    5355262.6    4032528.5 
     948    159988.91    3282583.3    5355175.8    4034026.7 
     949    160221.04    3279489.2    5355088.8    4035523.1 
     950    160453.07      3276396    5355001.4    4037017.2 
     951       160685    3273303.8    5354913.7      4038509 
     952    160916.84    3270212.5    5354825.8    4039999.2 
     953    161148.58    3267121.1    5354736.6      4041470 
     954    161380.22    3264031.7      5354648    4042956.1 
     955    161611.77    3260943.3    5354559.2    4044440.2 
     956    161843.22    3257855.8      5354470      4045921 
     957    162074.57    3254769.3    5354380.6    4047400.9 
     958    162305.82    3251683.8    5354290.8    4048878.5 
     959    162536.97    3248599.3    5354200.8      4050353 
     960    162768.02    3245515.7    5354110.4    4051826.6 
     961    162998.97    3242433.2    5354019.7    4053297.7 
     962    163229.82    3239351.4    5353928.6    4054764.5 
     963    163460.57    3236270.9    5353837.3    4056231.8 
     964    163691.21    3233191.2    5353745.5    4057694.2 
     965    163921.76    3230112.7    5353653.6    4059156.2 
     966     164152.2    3227035.2    5353561.4    4060627.5 
     967    164382.54    3223958.8    5353468.9    4062086.4 
     968    164612.77    3220883.4    5353376.1    4063554.7 
     969     164842.9    3217808.6    5353282.6    4064989.1 
     970    165072.93    3214735.3    5353189.1    4066440.3 
     971    165302.85    3211663.1    5353095.4    4067889.7 
     972    165532.66    3208591.9    5353001.4    4069337.6 
     973    165762.37    3205521.8      5352907    4070783.8 
     974    165991.97    3202452.7    5352812.4    4072227.8 
     975    166221.47    3199384.8    5352717.5    4073669.7 
     976    166450.85    3196317.6    5352621.9    4075099.4 
     977    166680.13    3193251.8    5352526.3      4076537 
     978     166909.3    3190187.1    5352430.4    4077971.3 
     979    167138.37    3187123.4    5352334.1    4079403.4 
     980    167367.32    3184060.9    5352237.6    4080846.3 
     981    167596.16    3180999.5    5352140.8    4082274.9 
     982    167824.89    3177939.3    5352043.7    4083713.1 
     983    168053.51    3174880.2    5351946.3      4085136 
     984    168282.02    3171821.9    5351848.3    4086550.6 
     985    168510.42      3168765    5351750.2      4087971 
     986    168738.71    3165709.3    5351651.9    4089389.2 
     987    168966.89    3162654.9    5351553.4    4090815.3 
     988    169194.95    3159601.5    5351454.4    4092229.1 
     989     169422.9    3156549.2    5351355.2    4093637.8 
     990    169650.73    3153498.1    5351255.6    4095043.1 
     991    169878.45    3150448.2    5351155.7    4096450.4 
     992    170106.06    3147399.5    5351055.5    4097855.6 
     993    170333.55    3144351.9    5350954.9    4099258.5 
     994    170560.92    3141305.5    5350854.1    4100659.3 
     995    170788.18    3138260.3    5350752.9    4102056.7 
     996    171015.32    3135216.3    5350651.5    4103453.2 
     997    171242.35    3132173.5    5350549.7    4104847.4 
     998    171469.26    3129131.9    5350447.6    4106238.9 
     999    171696.05    3126091.5    5350345.2    4107628.8 
    1000    171922.72    3123052.4    5350242.5    4109016.5 
    1001    172149.27    3120014.1    5350139.2    4110394.1 
    1002    172375.71    3116977.4    5350035.9    4111777.4 
    1003    172602.03    3113941.4    5349931.7    4113151.8 
    1004    172828.22    3110907.2    5349827.7    4114530.6 
    1005     173054.3    3107874.2    5349723.5    4115905.4 
    1006    173280.25    3104842.4    5349618.9    4117279.8 
    1007    173506.09    3101811.9      5349514    4118650.1 
    1008     173731.8    3098782.7    5349408.8    4120006.8 
    1009    173957.39    3095754.7    5349303.2    4121374.6 
    1010    174182.86      3092728    5349197.4    4122740.2 
    1011    174408.21    3089702.6    5349091.3    4124103.7 
    1012    174633.43    3086678.4    5348984.8    4125452.5 
    1013    174858.53    3083655.3    5348877.8    4126804.1 
    1014    175083.51    3080633.7    5348770.7    4128161.7 
    1015    175308.36    3077613.5    5348663.3    4129506.8 
    1016    175533.09    3074594.5    5348555.5    4130859.1 
    1017    175757.69    3071576.8    5348447.5    4132195.7 
    1018    175982.17    3068560.4    5348339.2    4133543.6 
    1019    176206.52    3065545.1    5348230.2    4134881.9 
    1020    176430.75    3062531.4    5348121.3    4136225.4 
    1021    176654.85      3059519      5348012    4137548.8 
    1022    176878.82    3056507.6    5347902.1    4138867.2 
    1023    177102.66    3053497.9    5347792.1    4140198.9 
    1024    177326.38    3050489.5    5347681.9      4141522 
    1025    177549.97    3047482.2    5347571.1    4142832.3 
    1026    177773.43    3044476.5    5347460.3    4144140.2 
    1027    177996.76    3041472.1    5347349.1    4145467.8 
    1028    178219.97    3038469.1    5347237.6    4146793.4 
    1029    178443.04    3035467.5    5347125.8    4148117.6 
    1030    178665.98    3032467.2    5347013.7    4149435.9 
    1031     178888.8    3029468.3    5346901.2    4150754.3 
    1032    179111.48    3026470.5    5346788.1    4152050.1 
    1033    179334.03    3023474.2    5346674.9    4153362.2 
    1034    179556.45    3020479.4    5346561.5    4154674.2 
    1035    179778.74    3017486.1    5346447.9    4155984.1 
    1036     180000.9    3014494.1    5346333.9    4157291.6 
    1037    180222.92    3011503.6    5346219.6      4158597 
    1038    180444.82    3008514.4    5346104.9    4159902.9 
    1039    180666.58    3005526.5    5345989.8    4161184.8 
    1040     180888.2    3002540.1    5345874.5    4162473.2 
    1041    181109.69    2999555.2      5345759      4163760 
    1042    181331.05    2996571.8    5345643.1    4165045.6 
    1043    181552.27    2993589.7    5345526.9    4166337.3 
    1044    181773.36    2990609.1    5345410.4    4167626.6 
    1045    181994.32      2987630    5345293.6    4168912.3 
    1046    182215.13    2984652.3    5345176.5    4170189.3 
    1047    182435.82      2981676    5345059.1    4171463.5 
    1048    182656.36    2978701.1    5344941.4      4172744 
    1049    182876.77    2975727.8    5344823.3    4174022.1 
    1050    183097.05    2972755.9    5344704.9    4175287.5 
    1051    183317.18    2969785.4    5344586.3    4176553.2 
    1052    183537.18    2966816.4    5344467.3    4177814.6 
    1053    183757.04    2963848.9      5344348    4179083.6 
    1054    183976.76    2960882.9    5344228.4    4180350.4 
    1055    184196.35    2957918.4    5344108.5    4181607.4 
    1056    184415.79    2954955.3    5343988.2    4182860.8 
    1057     184635.1    2951993.7    5343867.6    4184120.4 
    1058    184854.27    2949033.6    5343746.8    4185378.1 
    1059    185073.29      2946075    5343625.6    4186633.4 
    1060    185292.18      2943118    5343504.1    4187886.5 
    1061    185510.93    2940162.4    5343382.4    4189137.3 
    1062    185729.53    2937208.3    5343260.3    4190396.1 
    1063       185948    2934255.8    5343137.9    4191641.8 
    1064    186166.33    2931304.8    5343015.2      4192882 
    1065    186384.51      2928355    5342891.9      4194107 
    1066    186602.55    2925407.1    5342768.5    4195346.4 
    1067    186820.45    2922460.6    5342644.9    4196599.5 
    1068    187038.21    2919515.7      5342521    4197834.1 
    1069    187255.82    2916572.3    5342396.6    4199065.4 
    1070    187473.29    2913630.4      5342272    4200294.4 
    1071    187690.62    2910690.1    5342147.1    4201522.1 
    1072    187907.81    2907751.4      5342022    4202747.6 
    1073    188124.85    2904814.2    5341896.5    4203970.3 
    1074    188341.74    2901878.6    5341770.7    4205182.6 
    1075     188558.5    2898944.6    5341644.6    4206400.7 
    1076     188775.1    2896012.2    5341518.2    4207616.9 
    1077    188991.57    2893081.2    5341391.5    4208821.7 
    1078    189207.88    2890151.8    5341264.4    4210032.5 
    1079    189424.06    2887224.1    5341137.1      4211242 
    1080    189640.08      2884298    5341009.5    4212460.5 
    1081    189855.96    2881373.3    5340881.4    4213662.4 
    1082     190071.7    2878450.3    5340753.2    4214864.8 
    1083    190287.28    2875528.9    5340624.7      4216065 
    1084    190502.72    2872609.2    5340495.8    4217262.4 
    1085    190718.02      2869691    5340366.7      4218458 
    1086    190933.16    2866774.3    5340237.1    4219645.7 
    1087    191148.16    2863859.3    5340107.3    4220836.7 
    1088    191363.01      2860946    5339977.3    4222025.4 
    1089    191577.71    2858033.9    5339846.6      4223204 
    1090    191792.26    2855123.7    5339715.9    4224387.2 
    1091    192006.67    2852215.3    5339584.9      4225569 
    1092    192220.92    2849308.4    5339453.7    4226748.5 
    1093    192435.03    2846403.3    5339322.1    4227925.7 
    1094    192648.98    2843499.7    5339190.3    4229099.1 
    1095    192862.79    2840597.8    5339058.1    4230271.8 
    1096    193076.44    2837697.5    5338925.7      4231442 
    1097    193289.95    2834798.9      5338793    4232610.1 
    1098     193503.3    2831901.9    5338659.9    4233774.1 
    1099    193716.51    2829006.6    5338526.6    4234937.1 
    1100    193929.56    2826112.9    5338392.9    4236098.3 
    1101    194142.46      2823221      5338259      4237257 
    1102    194355.22    2820330.6    5338124.8    4238406.9 
    1103    194567.81    2817441.7      5337990    4239551.8 
    1104    194780.26    2814554.4    5337854.8    4240695.3 
    1105    194992.56    2811669.1    5337719.7    4241844.8 
    1106     195204.7    2808785.4    5337584.3      4242992 
    1107    195416.69    2805903.5    5337448.6      4244137 
    1108    195628.52    2803023.3    5337312.6    4245279.7 
    1109    195840.21    2800144.7    5337176.3    4246420.1 
    1110    196051.74    2797267.9    5337039.8    4247558.2 
    1111    196263.11    2794392.7    5336902.9    4248693.9 
    1112    196474.33    2791519.2    5336765.8    4249827.4 
    1113     196685.4    2788647.5    5336628.3    4250958.6 
    1114    196896.32    2785777.5    5336490.6    4252087.5 
    1115    197107.08    2782909.1    5336352.6      4253214 
    1116    197317.68    2780042.5    5336214.2    4254338.3 
    1117    197528.13    2777177.1    5336075.1      4255447 
    1118    197738.43      2774314    5335936.3    4256566.5 
    1119    197948.56    2771452.5    5335797.1    4257689.4 
    1120    198158.55    2768592.8    5335657.6    4258804.4 
    1121    198368.38    2765734.8    5335517.9    4259917.3 
    1122    198578.05    2762878.6    5335377.8    4261027.5 
    1123    198787.56      2760024    5335237.5      4262135 
    1124    198996.92    2757171.3    5335096.9    4263240.8 
    1125    199206.13    2754320.2      5334956    4264344.4 
    1126    199415.17      2751471    5334814.8    4265445.7 
    1127    199624.06    2748623.4    5334673.4    4266544.2 
    1128    199832.79    2745777.5    5334531.5      4267639 
    1129    200041.37    2742932.9    5334388.9    4268724.7 
    1130    200249.78    2740090.6    5334246.6    4269816.8 
    1131    200458.04    2737250.2      5334104    4270906.5 
    1132    200666.14    2734411.4    5333961.1    4271991.3 
    1133    200874.09    2731574.4    5333817.9    4273076.5 
    1134    201081.87    2728739.2    5333674.5    4274159.4 
    1135     201289.5    2725905.3    5333530.3    4275230.2 
    1136    201496.96    2723073.6    5333386.3    4276308.5 
    1137    201704.27    2720243.6    5333241.8    4277377.3 
    1138    201911.42      2717415    5333096.8    4278447.5 
    1139    202118.41    2714588.7      5332952      4279519 
    1140    202325.24    2711764.3    5332806.9    4280588.1 
    1141    202531.91    2708941.6    5332661.6      4281655 
    1142    202738.42    2706120.7    5332515.9    4282717.5 
    1143    202944.77    2703301.6      5332370    4283779.9 
    1144    203150.96    2700484.3    5332223.8    4284839.8 
    1145    203356.99    2697668.6    5332077.2    4285895.2 
    1146    203562.86    2694854.9    5331930.5    4286950.4 
    1147    203768.57    2692042.8    5331783.3    4287996.3 
    1148    203974.12    2689232.8      5331636    4289047.2 
    1149    204179.51    2686424.5    5331488.5    4290095.8 
    1150    204384.73    2683618.1    5331340.7    4291142.1 
    1151     204589.8    2680813.6    5331192.7    4292186.1 
    1152     204794.7    2678010.8    5331044.3    4293227.9 
    1153    204999.44    2675209.8    5330895.6    4294266.1 
    1154    205204.02    2672410.7    5330746.8    4295303.3 
    1155    205408.44    2669613.2    5330597.4    4296330.9 
    1156    205612.69    2666817.8    5330448.1    4297369.7 
    1157    205816.79    2664024.2    5330298.4      4298400 
    1158    206020.72    2661232.4    5330148.4    4299427.3 
    1159    206224.49    2658442.4    5329998.2    4300458.6 
    1160    206428.09    2655654.3    5329847.8    4301481.4 
    1161    206631.53    2652868.1    5329697.1    4302502.6 
    1162    206834.81    2650083.4    5329545.8      4303517 
    1163    207037.93    2647300.9    5329394.5    4304533.7 
    1164    207240.88    2644520.2      5329243    4305547.8 
    1165    207443.67    2641741.5    5329091.3    4306559.9 
    1166     207646.3    2638964.1    5328938.9    4307562.3 
    1167    207848.76    2636189.1    5328786.7      4308570 
    1168    208051.05    2633415.9    5328634.2    4309575.3 
    1169    208253.19    2630644.6    5328481.5    4310578.4 
    1170    208455.16      2627875    5328328.3    4311577.5 
    1171    208656.96    2625107.5      5328175    4312576.1 
    1172     208858.6    2622341.8    5328021.6    4313572.3 
    1173    209060.08      2619578    5327867.8    4314566.3 
    1174    209261.39    2616816.1    5327713.8    4315558.1 
    1175    209462.54      2614056    5327559.5    4316547.7 
    1176    209663.52    2611297.8    5327404.9    4317533.2 
    1177    209864.34    2608541.3    5327249.9      4318515 
    1178    210064.99    2605786.9    5327094.9    4319497.8 
    1179    210265.47    2603034.5    5326939.7    4320478.4 
    1180    210465.79    2600283.9    5326784.2    4321456.6 
    1181    210665.95    2597535.2    5326628.4    4322432.5 
    1182    210865.94    2594788.5    5326472.4    4323406.3 
    1183    211065.76    2592043.6    5326316.1    4324377.3 
    1184    211265.42    2589300.6    5326159.7    4325346.6 
    1185    211464.91    2586559.6    5326002.9    4326313.6 
    1186    211664.23    2583820.4      5325846    4327278.4 
    1187    211863.39    2581083.2    5325688.8      4328241 
    1188    212062.38    2578347.9    5325531.3    4329201.3 
    1189    212261.21    2575614.4    5325373.5    4330151.2 
    1190    212459.87    2572882.8    5325215.4    4331105.1 
    1191    212658.36    2570153.2    5325057.3    4332058.7 
    1192    212856.68    2567425.6    5324898.9    4333021.6 
    1193    213054.84    2564699.9    5324740.3    4333970.7 
    1194    213252.83    2561976.2    5324581.4    4334917.6 
    1195    213450.65    2559254.4    5324422.3    4335862.3 
    1196    213648.31      2556534    5324262.5    4336797.8 
    1197     213845.8    2553815.9    5324102.9    4337736.7 
    1198    214043.12    2551099.9    5323943.1    4338674.6 
    1199    214240.28    2548385.9      5323783    4339610.4 
    1200    214437.26    2545673.7    5323622.8    4340543.9 
    1201    214634.08    2542963.5    5323462.3    4341468.5 
    1202    214830.73    2540255.3    5323301.6    4342403.9 
    1203    215027.21      2537549    5323140.6    4343330.7 
    1204    215223.53    2534844.7    5322979.5    4344255.4 
    1205    215419.67    2532142.3    5322818.1    4345177.8 
    1206    215615.65    2529441.5    5322656.1    4346093.1 
    1207    215811.46      2526743    5322494.3    4347011.2 
    1208     216007.1    2524046.5    5322332.2      4347927 
    1209    216202.57    2521351.9    5322169.9    4348839.4 
    1210    216397.88    2518659.3    5322007.4    4349750.8 
    1211    216593.01    2515968.7    5321844.6    4350671.7 
    1212    216787.98      2513280    5321681.7      4351578 
    1213    216982.78    2510593.1    5321518.3    4352480.2 
    1214     217177.4    2507908.4    5321354.9    4353382.7 
    1215    217371.86    2505225.7    5321191.3    4354283.1 
    1216    217566.15    2502544.9    5321027.5    4355186.9 
    1217    217760.27    2499865.7      5320863    4356075.2 
    1218    217954.23    2497188.9    5320698.8    4356968.9 
    1219    218148.01      2494514    5320534.3    4357860.3 
    1220    218341.62    2491841.1    5320369.6    4358748.6 
    1221    218535.06    2489170.2    5320204.7    4359635.5 
    1222    218728.34    2486500.8      5320039    4360512.9 
    1223    218921.44    2483833.9    5319873.7    4361395.7 
    1224    219114.38      2481169    5319708.2    4362276.3 
    1225    219307.14    2478505.6    5319541.9    4363157.3 
    1226    219499.73    2475844.6      5319376    4364033.6 
    1227    219692.16    2473185.6    5319209.8    4364905.5 
    1228    219884.41    2470528.7    5319043.4    4365777.5 
    1229     220076.5    2467873.8    5318876.9    4366646.9 
    1230    220268.41    2465220.6    5318709.9    4367512.2 
    1231    220460.16    2462569.6    5318542.9    4368376.9 
    1232    220651.73    2459920.7    5318375.7    4369240.1 
    1233    220843.13    2457273.5      5318208    4370096.9 
    1234    221034.36    2454628.5    5318040.4    4370955.8 
    1235    221225.43    2451985.6    5317872.6    4371812.6 
    1236    221416.32    2449344.7    5317704.6    4372667.2 
    1237    221607.04    2446705.7    5317536.3    4373497.9 
    1238    221797.59    2444068.8      5317368    4374347.7 
    1239    221987.97    2441433.9    5317199.4    4375195.8 
    1240    222178.18    2438801.2    5317030.7    4376042.7 
    1241    222368.21    2436170.3    5316861.7    4376886.5 
    1242    222558.08    2433541.5    5316692.5    4377728.2 
    1243    222747.78    2430914.7    5316523.1    4378566.3 
    1244     222937.3    2428289.8    5316353.5    4379402.6 
    1245    223126.65    2425667.1    5316183.7    4380237.9 
    1246    223315.84    2423046.4    5316013.8    4381070.9 
    1247    223504.85    2420427.7    5315843.7    4381901.9 
    1248    223693.69      2417811    5315673.3    4382730.7 
    1249    223882.36    2415196.3    5315502.8    4383557.3 
    1250    224070.85    2412583.7    5315332.1    4384381.9 
    1251    224259.18      2409973    5315161.1    4385202.8 
    1252    224447.33    2407364.5      5314990      4386018 
    1253    224635.32    2404757.5    5314818.3    4386822.8 
    1254    224823.13      2402153    5314646.8    4387638.6 
    1255    225010.77    2399550.6    5314475.2    4388452.5 
    1256    225198.23    2396950.2    5314303.4    4389264.3 
    1257    225385.53    2394351.9    5314131.3    4390073.9 
    1258    225572.65    2391755.1    5313958.8    4390875.1 
    1259    225759.61    2389160.9    5313786.4    4391680.3 
    1260    225946.39    2386568.5    5313613.6    4392481.3 
    1261       226133    2383978.3    5313440.9    4393294.3 
    1262    226319.43    2381390.2      5313268    4394093.4 
    1263     226505.7    2378804.1    5313094.9    4394890.2 
    1264    226691.79    2376220.1    5312921.6      4395685 
    1265    226877.71    2373638.1    5312748.2    4396477.8 
    1266    227063.46    2371057.8    5312574.2    4397262.6 
[...]
    3487    338357.55    114099.49    4497386.4    3972073.2 
    3488    338342.18    113816.53    4496904.3    3973959.5 
    3489    338326.84    113532.97    4496422.1    3974915.7 
    3490    338311.55    113248.99      4495940    3977352.6 
    3491    338296.32    112963.04    4495456.7    3979839.5 
    3492    338281.17    112676.48    4494973.8    3982648.3 
    3493    338266.09    112389.48    4494491.5      3985632 
    3494    338251.09       112101    4494008.7    3988775.1 
    3495    338236.18    111811.72    4493526.3    3992176.4 
    3496    338221.37    111521.11    4493043.8    3995757.7 
    3497    338206.65    111229.07    4492561.1    3999536.3 
    3498    338192.05    110935.42    4492078.3      4003528 
    3499    338177.56     110640.4    4491595.5    4007656.1 
    3500    338163.17    110344.61    4491113.3    4010705.2 
    3501    338148.88    110046.01    4490629.7    4015350.3 
    3502    338134.74    109745.98    4490146.4    4020083.9 
    3503    338120.73    109443.58    4489662.5    4024897.1 
    3504    338106.86    109139.27    4489178.5    4029747.9 
    3505    338093.13    108833.79    4488695.2      4034613 
    3506    338079.55    108526.36    4488211.9    4039433.6 
    3507    338066.11    108216.85    4487728.3    4044151.5 
    3508    338052.82    107904.94    4487244.2    4048732.7 
    3509    338039.67    107591.43    4486760.3    4053121.2 
    3510    338026.65     107276.2    4486276.4    4057271.3 
    3511    338013.76    106958.85    4485792.1    4061104.3 
    3512       338001    106640.15    4485308.1    4064623.3 
    3513    337988.35     106319.8    4484823.9    4067752.7 
    3514    337975.81    105998.24    4484339.9    4070479.4 
    3515    337963.36    105675.04    4483855.4    4072732.6 
    3516       337951    105350.91    4483371.1    4074510.7 
    3517     337938.7    105026.02    4482886.9    4075787.7 
    3518    337926.45    104700.28    4482402.5    4076261.3 
    3519    337914.24    104372.77    4481916.7    4076251.3 
    3520    337902.04    104046.19    4481432.2    4075916.3 
    3521    337889.85    103719.75    4480947.8    4075060.3 
    3522    337877.65    103393.21    4480463.2    4073661.4 
    3523    337865.43     103066.8    4479978.4    4071729.9 
    3524    337853.16    102741.04    4479493.7    4069312.6 
    3525    337840.82    102416.19    4479009.1    4066404.7 
    3526    337828.42    102092.07    4478524.2    4063005.3 
    3527    337815.92    101769.69    4478039.9    4059238.5 
    3528    337803.31    101448.55    4477555.5    4055083.9 
    3529    337790.59     101128.9      4477071    4050617.1 
    3530    337777.73    100811.17    4476586.8    4045841.3 
    3531    337764.74    100495.27    4476102.5    4040777.5 
    3532    337751.59    100181.31    4475618.2      4035493 
    3533    337738.28    99868.995    4475133.5    4030021.2 
    3534    337724.81    99559.158    4474649.1    4024260.6 
    3535    337711.16    99251.427    4474164.5    4018656.4 
    3536    337697.32     98946.11      4473680      4012577 
    3537    337683.31    98643.872    4473196.2    4006884.5 
    3538    337669.11    98343.981    4472712.4    4001318.3 
    3539    337654.74    98046.279    4472228.5    3995916.9 
    3540    337640.19    97750.411    4471744.2    3990634.7 
    3541    337625.47    97456.738    4471259.8    3985591.5 
    3542    337610.59    97162.583    4470772.8    3980497.9 
    3543    337595.53    96872.892    4470288.2    3975974.6 
    3544    337580.33    96585.597    4469803.9      3971890 
    3545    337564.99    96299.735    4469319.3    3968071.7 
    3546    337549.52    96015.856      4468835    3964749.7 
    3547    337533.93    95733.787      4468351    3961922.5 
    3548    337518.23    95452.573    4467866.4    3959202.1 
    3549    337502.43    95173.414    4467382.6    3957385.5 
    3550    337486.56    94894.689    4466898.3    3955971.4 
    3551    337470.62    94615.273    4466412.4    3955064.6 
    3552    337454.64    94337.176    4465927.2    3954602.2 
    3553     337438.6    94059.309    4465441.6    3954358.9 
    3554    337422.53    93780.554    4464954.7    3954367.6 
    3555    337406.44    93504.072    4464469.7      3955060 
    3556    337390.34    93228.585    4463985.7    3956209.8 
    3557    337374.25     92952.36      4463501    3957489.7 
    3558    337358.17    92676.795    4463017.1    3959095.5 
    3559    337342.12    92400.924    4462533.3    3960831.2 
    3560    337326.08    92124.411    4462049.1    3962593.4 
    3561    337310.08    91846.911    4461564.2      3964370 
    3562     337294.1    91569.207    4461079.5    3966097.2 
    3563    337278.15    91290.695    4460594.4      3967850 
    3564    337262.23    91012.698    4460110.2    3969717.2 
    3565    337246.35    90733.885    4459625.7    3971529.9 
    3566    337230.51    90454.831    4459141.4    3973349.7 
    3567    337214.71      90175.4    4458657.2    3975220.2 
    3568    337198.95    89895.342      4458173      3977142 
    3569    337183.23    89612.936      4457687    3979009.3 
    3570    337167.56    89331.802    4457202.9    3981024.4 
    3571    337151.95    89049.804    4456718.6    3982938.4 
    3572    337136.38    88766.908      4456234      3984879 
    3573    337120.87    88483.218    4455749.4      3986869 
    3574    337105.41      88199.2    4455265.1      3988837 
    3575    337090.01    87914.404    4454780.8    3990766.9 
    3576    337074.67    87627.861    4454295.5    3992499.2 
    3577    337059.37    87342.271    4453811.7    3993686.5 
    3578    337044.11    87055.232      4453327    3995311.5 
    3579     337028.9    86767.602    4452842.4    3996777.6 
    3580    337013.73     86480.07    4452358.3      3997379 
    3581    336998.59    86191.282    4451873.4    3998492.8 
    3582    336983.49    85902.018    4451388.5    3999328.7 
    3583    336968.42    85612.309    4450903.6      3999808 
    3584    336953.37    85322.469    4450418.8    3999919.2 
    3585    336938.33    85031.448    4449932.9    3999509.1 
    3586    336923.28    84741.619    4449448.1    3998432.7 
    3587    336908.21    84450.312    4448961.5    3997277.5 
    3588    336893.11    84160.882    4448476.5    3995893.2 
    3589    336877.98    83871.791    4447991.4      3994141 
    3590    336862.79    83583.487    4447506.4      3992059 
    3591    336847.56    83295.878    4447021.4    3989647.4 
    3592    336832.23    83007.935    4446534.9      3985882 
    3593    336816.81    82722.365    4446049.5    3983007.7 
    3594     336801.3    82438.217    4445564.5      3979918 
    3595     336785.7    82155.265    4445079.4    3976658.4 
    3596    336769.99    81871.697    4444592.4    3972968.3 
    3597    336754.18    81590.761    4444106.6    3969340.2 
    3598    336738.25    81311.962    4443621.5    3965765.2 
    3599    336722.21    81033.257      4443135    3962042.1 
    3600    336706.05    80756.778    4442649.2      3958181 
    3601    336689.78    80481.454      4442163    3954377.3 
    3602    336673.38    80208.671    4441677.8    3950752.7 
    3603    336656.86    79937.429    4441192.6    3947210.4 
    3604    336640.24    79667.777    4440707.5    3943833.8 
    3605     336623.5     79399.78    4440222.8    3940604.3 
    3606    336606.66    79132.674    4439737.5    3937474.3 
    3607    336589.71    78864.413    4439249.7    3934172.8 
    3608    336572.66    78598.666      4438763    3931323.5 
    3609    336555.52    78335.248    4438277.6    3928760.8 
    3610    336538.29    78071.311    4437790.4      3926129 
    3611    336520.98    77810.583    4437305.4    3924031.3 
    3612     336503.6    77548.929    4436818.6    3921875.1 
    3613    336486.15    77290.053    4436333.7    3920122.4 
    3614    336468.64     77031.56    4435848.4    3918387.1 
    3615    336451.08    76773.282    4435362.6    3916900.5 
    3616    336433.46     76516.06    4434877.2    3915431.8 
    3617     336415.8    76259.766    4434392.1    3914022.7 
    3618     336398.1    76002.982    4433905.9    3912514.1 
    3619    336380.35    75747.228    4433420.2    3911127.7 
    3620    336362.55    75492.046    4432934.5    3909539.6 
    3621    336344.71    75238.295    4432449.6    3908029.2 
    3622    336326.82    74984.087    4431963.7    3906201.2 
    3623    336308.88    74731.585    4431478.8    3904429.7 
    3624     336290.9     74480.34    4430994.5    3902661.1 
    3625    336272.86    74227.783    4430508.3    3900729.8 
    3626    336254.76    73977.575    4430023.7    3898405.2 
    3627    336236.61    73728.429    4429539.4    3896289.4 
    3628     336218.4    73478.508    4429053.5      3893961 
    3629    336200.12    73229.907    4428568.2    3891515.5 
    3630    336181.78    72980.185    4428080.9    3889037.1 
    3631    336163.38    72733.766      4427596    3886500.9 
    3632    336144.89    72489.293    4427112.1    3883551.7 
    3633    336126.33    72244.142    4426626.5    3881077.5 
    3634    336107.72    72000.805      4426142    3878788.7 
    3635    336089.04    71757.932    4425657.2    3876512.5 
    3636    336070.31    71515.703    4425172.3    3874240.3 
    3637    336051.52    71274.081    4424687.2    3872000.3 
    3638    336032.67    71032.837    4424201.9    3869862.2 
    3639    336013.77    70792.413    4423716.6    3867786.5 
    3640    335994.82    70553.002    4423231.7    3865807.5 
    3641    335975.83    70314.604    4422747.2    3864005.2 
    3642    335956.79    70076.509    4422262.4    3862309.9 
    3643     335937.7    69839.233      4421778    3860739.9 
    3644    335918.58     69601.28    4421292.3    3859181.4 
    3645    335899.42    69364.788    4420807.6    3857861.3 
    3646    335880.23    69128.423    4420322.6    3856623.9 
    3647    335861.01    68892.751    4419837.9    3855539.3 
    3648    335841.75    68658.181    4419353.9    3854167.8 
    3649    335822.46    68420.804    4418866.6    3852958.7 
    3650    335803.14    68185.951    4418381.5    3852352.6 
    3651    335783.81    67951.715    4417896.8      3851978 
    3652    335764.47    67717.392      4417412    3851676.7 
    3653    335745.12    67483.341    4416927.3    3851540.5 
    3654    335725.77    67249.344    4416442.6    3851560.3 
    3655    335706.42    67014.714    4415957.2    3851768.9 
    3656    335687.07    66780.299    4415472.1    3852069.8 
    3657    335667.72    66545.844    4414987.1    3852441.4 
    3658    335648.38     66311.77    4414502.5    3853025.1 
    3659    335629.05    66077.268    4414017.6      3853716 
    3660    335609.74    65842.365    4413532.4    3854573.6 
    3661    335590.44    65607.792    4413047.8    3855583.8 
    3662    335571.16    65371.908    4412562.2      3856802 
    3663     335551.9    65136.269    4412077.1    3857966.9 
    3664    335532.66    64898.787    4411590.4    3859121.5 
    3665    335513.44    64661.998    4411104.6    3860529.3 
    3666    335494.25     64425.21    4410619.2    3862138.9 
    3667    335475.09    64187.904    4410133.7      3863816 
    3668    335455.97    63950.791    4409648.8      3865753 
    3669    335436.88    63711.943    4409162.7    3867805.6 
    3670    335417.83    63472.843    4408676.8    3869751.1 
    3671    335398.82    63233.896    4408191.6    3871990.4 
    3672    335379.86    62994.345    4407706.4    3874242.6 
    3673    335360.94     62754.18    4407221.1    3876620.5 
    3674    335342.07    62513.489      4406736    3879047.5 
    3675    335323.24    62271.976    4406250.6      3881458 
    3676    335304.46    62029.922    4405765.3    3883910.1 
    3677    335285.74    61787.132    4405279.9    3886395.4 
    3678    335267.05    61542.389    4404793.1    3888766.1 
    3679    335248.41    61298.496    4404307.8    3891298.7 
    3680    335229.82    61053.819    4403822.3    3893845.9 
    3681    335211.28    60808.159    4403336.4    3896492.1 
    3682    335192.78    60559.394    4402847.9    3898868.5 
    3683    335174.32    60312.064    4402361.5    3901439.7 
    3684     335155.9    60065.755    4401876.5    3903754.9 
    3685    335137.52    59815.454    4401388.1    3906507.4 
    3686    335119.18    59566.189    4400901.3    3909506.4 
    3687    335100.89    59314.818      4400413    3912447.1 
    3688    335082.66    59064.947    4399926.9    3915800.3 
    3689    335064.48    58814.547      4399441      3919298 
    3690    335046.36    58563.326    4398955.1    3922853.4 
    3691     335028.3     58308.88    4398466.7    3926303.3 
    3692     335010.3    58054.602    4397979.3    3929759.9 
    3693    334992.37    57800.156    4397492.5    3933226.2 
    3694    334974.49    57544.603    4397005.4    3936428.1 
    3695    334956.68    57288.313    4396518.3    3939417.3 
    3696    334938.92    57030.833    4396030.7    3942082.9 
    3697    334921.21    56773.291    4395543.8    3944386.2 
    3698    334903.55    56515.216    4395056.9    3946205.8 
    3699    334885.93    56256.999    4394570.4    3947532.3 
    3700    334868.33    55997.631    4394083.1    3948203.1 
    3701    334850.76    55738.504    4393596.3    3948391.8 
    3702    334833.19    55477.813      4393108    3947902.5 
    3703    334815.62    55219.143    4392621.7    3946964.3 
    3704    334798.03    54958.929    4392133.6    3945250.3 
    3705     334780.4    54701.003    4391647.4    3942721.2 
    3706    334762.73    54443.377    4391160.8      3940290 
    3707    334745.02    54186.552    4390674.5    3937444.6 
    3708    334727.24    53930.269      4390188    3934171.7 
    3709    334709.41     53674.99    4389701.6    3930549.9 
    3710    334691.49    53420.382    4389214.9    3926593.2 
    3711    334673.49    53166.392    4388727.8    3922286.8 
    3712    334655.39    52913.069      4388240    3917688.2 
    3713    334637.19    52660.863      4387752    3912949.3 
    3714    334618.88    52409.329    4387263.3    3908046.6 
    3715    334600.46    52159.682    4386774.9    3902816.9 
    3716     334581.9    51910.903    4386285.8    3897328.7 
    3717    334563.22    51665.149      4385798    3892272.3 
    3718    334544.42    51422.505    4385311.8    3887432.6 
    3719    334525.49    51177.861      4384822    3881990.5 
    3720    334506.43    50936.819      4384334    3876997.3 
    3721    334487.24    50696.203    4383844.8      3871808 
    3722    334467.93    50460.093    4383358.5    3867359.9 
    3723     334448.5     50224.85    4382871.6    3862854.4 
    3724    334428.96    49990.137    4382383.7    3858486.9 
    3725     334409.3     49756.63    4381895.6    3854415.4 
    3726    334389.55    49526.285    4381409.2    3850479.7 
    3727    334369.68    49297.097    4380922.8    3846672.6 
    3728    334349.72    49069.019    4380436.1    3843197.5 
    3729    334329.67    48841.377    4379948.7    3839853.9 
    3730    334309.54    48616.628    4379463.1    3836893.6 
    3731    334289.32    48392.264    4378976.8    3833940.6 
    3732    334269.03    48168.746    4378490.4    3831272.7 
    3733    334248.66    47946.157      4378004    3828683.2 
    3734    334228.22     47724.57    4377517.7    3826049.4 
    3735    334207.72    47503.856    4377031.3    3823818.5 
    3736    334187.16    47284.999    4376546.1    3821818.5 
    3737    334166.54    47066.822    4376060.8    3819805.4 
    3738    334145.87    46849.399    4375575.6    3818044.2 
    3739    334125.15    46631.984    4375089.8    3816312.6 
    3740    334104.38    46414.875    4374603.7    3814566.8 
    3741    334083.57    46198.909    4374118.1    3812999.3 
    3742    334062.72    45983.222    4373632.3    3811627.9 
    3743    334041.82    45768.601      4373147      3810180 
    3744    334020.87    45554.723    4372661.6    3807247.4 
    3745    333999.86    45341.632    4372176.4    3806310.1 
    3746    333978.82    45128.033    4371690.2      3805217 
    3747    333957.75    44915.917    4371205.2    3804352.9 
    3748    333936.66    44703.525    4370719.6    3803406.6 
    3749    333915.54    44491.825    4370234.3      3802505 
    3750     333894.4    44280.027    4369748.6    3801638.7 
    3751    333873.23    44069.286    4369263.6    3800884.6 
    3752    333852.04     43858.51    4368778.4    3800110.6 
    3753    333830.83    43647.144    4368292.2    3799342.7 
    3754     333809.6    43436.855    4367806.9    3798585.7 
    3755    333788.35    43227.063    4367321.8    3797893.5 
    3756    333767.08    43017.512    4366836.6    3797232.9 
    3757    333745.78    42807.909    4366351.2    3796537.4 
    3758    333724.47    42598.887    4365866.1    3795909.5 
    3759    333703.14     42390.99    4365381.8    3794937.3 
    3760    333681.78    42182.556    4364896.7    3794400.6 
    3761     333660.4    41974.705    4364411.9    3793623.8 
    3762       333639    41766.704    4363926.7    3793306.8 
    3763     333617.6     41559.49    4363442.2    3793039.7 
    3764    333596.19    41351.677    4362957.1    3792828.3 
    3765    333574.78    41143.484    4362471.5    3792689.2 
    3766    333553.36    40935.897    4361986.4    3792595.6 
    3767    333531.94    40728.095    4361501.1    3792584.9 
    3768    333510.52    40520.263    4361015.8    3792572.2 
    3769    333489.11    40312.639    4360530.8      3792675 
    3770    333467.69    40104.567    4360045.3    3792806.1 
    3771    333446.29    39896.686    4359560.1    3793009.8 
    3772    333424.89     39688.74    4359074.9    3793267.8 
    3773     333403.5    39480.511    4358589.6    3793530.1 
    3774    333382.11    39272.311    4358104.4    3793866.4 
    3775    333360.75     39063.77    4357619.1    3794282.5 
    3776    333339.39    38855.124    4357133.8    3794727.8 
    3777    333318.05    38645.307    4356647.5    3795259.5 
    3778    333296.73    38436.281    4356162.3    3795877.5 
    3779    333275.44    38226.958    4355677.1    3796590.8 
    3780    333254.16    38017.231    4355191.8    3797381.3 
    3781    333232.92    37807.207    4354706.5    3798263.1 
    3782    333211.71    37596.088    4354220.6    3799280.5 
    3783    333190.53    37385.071    4353735.2    3800416.9 
    3784    333169.38     37174.97    4353251.2    3801081.7 
    3785    333148.27    36963.034    4352765.8    3802616.7 
    3786    333127.22    36750.468    4352280.5    3804285.4 
    3787    333106.22    36537.063      4351795    3806028.5 
    3788    333085.28    36322.866    4351309.5    3807809.5 
    3789    333064.39    36107.859      4350824    3809592.3 
    3790    333043.57    35892.049    4350338.5    3811284.8 
    3791    333022.81    35675.493    4349852.9    3812737.1 
    3792    333002.09    35458.296    4349367.4    3814025.7 
    3793    332981.42    35240.169    4348881.5    3815050.2 
    3794    332960.79    35021.513    4348395.5      3815804 
    3795    332940.18    34802.794    4347909.8    3816231.3 
    3796    332919.59    34583.869    4347424.2    3816385.3 
    3797    332899.01    34364.491    4346938.2    3816228.2 
    3798    332878.43    34145.392    4346452.5    3815801.3 
    3799    332857.85    33925.393    4345965.8    3815167.7 
    3800    332837.25    33705.794    4345479.3    3814362.6 
    3801    332816.63    33487.274    4344993.7    3813427.2 
    3802    332795.99     33268.53    4344507.6    3812382.8 
    3803    332775.32    33050.608    4344021.9    3811281.9 
    3804    332754.62    32832.664    4343535.9    3810139.1 
    3805     332733.9    32615.546    4343050.2    3808984.4 
    3806    332713.14    32398.843    4342564.7    3807841.9 
    3807    332692.35    32182.457      4342079      3806738 
    3808    332671.54    31966.092     