LAMMPS (19 Sep 2019)
OMP_NUM_THREADS environment is not set. Defaulting to 1 thread. (../comm.cpp:93)
  using 1 OpenMP thread(s) per MPI task
Reading data file ...
  orthogonal box = (-7.2071 -7.02344 -11.8928) to (7.94128 5.12669 11.8654)
  1 by 1 by 1 MPI processor grid
  reading atoms ...
  161 atoms
  read_data CPU = 0.0036388 secs
Replicating atoms ...
  orthogonal box = (-7.2071 -7.02344 -11.8928) to (38.238 29.427 59.3819)
  1 by 1 by 1 MPI processor grid
  4347 atoms
  replicate CPU = 0.0011084 secs
Reading potential file ffield.reax.FC with DATE: 2013-06-28
WARNING: Changed valency_val to valency_boc for X (../reaxc_ffield.cpp:315)
Neighbor list info ...
  update every 10 steps, delay 0 steps, check no
  max neighbors/atom: 2000, page size: 100000
  master list distance cutoff = 12
  ghost atom cutoff = 12
  binsize = 6, bins = 8 7 12
  2 neighbor lists, perpetual/occasional/extra = 2 0 0
  (1) pair reax/c, perpetual
      attributes: half, newton off, ghost
      pair build: half/bin/newtoff/ghost
      stencil: half/ghost/bin/3d/newtoff
      bin: standard
  (2) fix qeq/reax, perpetual, copy from (1)
      attributes: half, newton off, ghost
      pair build: copy
      stencil: none
      bin: none
Setting up Verlet run ...
  Unit style    : real
  Current step  : 0
  Time step     : 0.01
Per MPI rank memory allocation (min/avg/max) = 286.9 | 286.9 | 286.9 Mbytes
Step Time Temp E_pair PotEng KinEng TotEng E_bond Press Volume Density 
       0            0          300    -178324.5    -178324.5    3886.3801   -174438.12            0     196430.9    118066.02   0.87061516 
       1         0.01    300.44466   -178330.27   -178330.27    3892.1405   -174438.13            0    196426.02    118066.02   0.87061514 
       2         0.02    302.24607   -178353.63   -178353.63    3915.4771   -174438.15            0    196416.27    118066.03   0.87061509 
       3         0.03    305.40363   -178394.56   -178394.56     3956.382   -174438.18            0    196401.67    118066.04     0.870615 
       4         0.04    309.91625   -178453.12   -178453.12    4014.8412   -174438.28            0    196382.39    118066.06   0.87061488 
       5         0.05    315.78235   -178529.42   -178529.42    4090.8342   -174438.59            0    196359.12    118066.08   0.87061473 
       6         0.06    322.99988   -178623.29   -178623.29    4184.3344   -174438.95            0    196331.23     118066.1   0.87061454 
       7         0.07    331.56638   -178734.65   -178734.65      4295.31   -174439.34            0    196298.34    118066.13   0.87061432 
       8         0.08     341.4789    -178863.6    -178863.6    4423.7227   -174439.88            0    196261.14    118066.17   0.87061407 
       9         0.09    352.73401   -179010.25   -179010.25    4569.5281   -174440.73            0    196220.15    118066.21   0.87061378 
      10          0.1    365.32783   -179174.22   -179174.22    4732.6761   -174441.54            0    196174.22    118066.25   0.87061345 
      11         0.11    379.25613   -179355.09   -179355.09    4913.1116   -174441.98            0    196121.23     118066.3    0.8706131 
      12         0.12    394.51423   -179553.21   -179553.21    5110.7743   -174442.43            0    196062.94    118066.35    0.8706127 
      13         0.13      411.097   -179768.49   -179768.49    5325.5974    -174442.9            0    195999.26    118066.41   0.87061228 
      14         0.14    428.99885   -180000.74   -180000.74    5557.5087   -174443.23            0    195929.63    118066.47   0.87061182 
      15         0.15    448.21381    -180249.9    -180249.9    5806.4308   -174443.47            0    195854.13    118066.54   0.87061132 
      16         0.16    468.73544   -180516.16   -180516.16    6072.2804   -174443.88            0    195773.73    118066.61    0.8706108 
      17         0.17    490.55691   -180799.19   -180799.19    6354.9687   -174444.22            0    195688.76    118066.69   0.87061024 
      18         0.18      513.671   -181098.91   -181098.91    6654.4025   -174444.51            0    195597.23    118066.77   0.87060964 
      19         0.19    538.07011   -181415.47   -181415.47    6970.4834   -174444.99            0    195502.26    118066.85   0.87060901 
      20          0.2    563.74626   -181748.43   -181748.43    7303.1076   -174445.32            0    195401.22    118066.94   0.87060835 
      21         0.21    590.69106   -182097.84   -182097.84    7652.1668   -174445.68            0    195295.77    118067.04   0.87060765 
      22         0.22    618.89564   -182463.54   -182463.54    8017.5457      -174446            0    195192.63    118067.14   0.87060692 
      23         0.23    648.35087    -182845.4    -182845.4    8399.1265   -174446.28            0    195077.55    118067.24   0.87060615 
      24         0.24    679.04734   -183243.53   -183243.53    8796.7871   -174446.74            0    194964.82    118067.35   0.87060535 
      25         0.25    710.97525   -183657.45   -183657.45    9210.4003   -174447.05            0    194842.06    118067.46   0.87060452 
      26         0.26    744.12447   -184087.39   -184087.39    9639.8352   -174447.55            0    194722.58    118067.58   0.87060365 
      27         0.27    778.48455   -184533.01   -184533.01    10084.956   -174448.06            0    194593.27     118067.7   0.87060275 
      28         0.28    814.04472   -184994.21   -184994.21    10545.624   -174448.58            0    194468.77    118067.83   0.87060182 
      29         0.29    850.79374   -185470.82   -185470.82    11021.693   -174449.13            0    194343.34    118067.96   0.87060085 
      30          0.3    888.71989   -185962.59   -185962.59    11513.011   -174449.58            0    194231.48    118068.09   0.87059985 
      31         0.31    927.81133   -186469.47   -186469.47    12019.425   -174450.04            0    194109.09    118068.24   0.87059882 
      32         0.32    968.05626   -186991.38   -186991.38    12540.782   -174450.59            0    193987.49    118068.38   0.87059775 
      33         0.33    1009.4421   -187528.17   -187528.17    13076.919   -174451.25            0    193874.84    118068.53   0.87059664 
      34         0.34     1051.956   -188079.47   -188079.47     13627.67    -174451.8            0    193768.15    118068.68   0.87059551 
      35         0.35     1095.585   -188645.26   -188645.26    14192.866    -174452.4            0    193662.09    118068.84   0.87059434 
      36         0.36     1140.316   -189225.36   -189225.36    14772.338   -174453.02            0    193555.32    118069.01   0.87059313 
      37         0.37     1186.135   -189819.62   -189819.62    15365.905   -174453.71            0    193466.49    118069.17    0.8705919 
      38         0.38    1233.0279   -190427.76   -190427.76    15973.384   -174454.38            0    193382.49    118069.35   0.87059063 
      39         0.39      1280.98   -191049.75   -191049.75    16594.585   -174455.17            0    193326.07    118069.52   0.87058932 
      40          0.4     1329.976   -191685.46   -191685.46    17229.308   -174456.15            0    193280.64     118069.7   0.87058798 
      41         0.41    1380.0004   -192334.11   -192334.11    17877.354   -174456.76            0    193253.27    118069.89   0.87058661 
      42         0.42    1431.0373   -192996.38   -192996.38    18538.516   -174457.86            0    193246.96    118070.08   0.87058521 
      43         0.43    1483.0696   -193671.05   -193671.05    19212.574   -174458.48            0    193281.36    118070.28   0.87058377 
      44         0.44    1536.0798   -194358.53   -194358.53      19899.3   -174459.23            0    193355.44    118070.48    0.8705823 
      45         0.45    1590.0496   -195058.87   -195058.87    20598.458   -174460.42            0    193450.09    118070.68   0.87058079 
      46         0.46    1644.9605   -195771.19   -195771.19    21309.806   -174461.38            0     193588.8    118070.89   0.87057925 
      47         0.47    1700.7926   -196495.46   -196495.46    22033.089   -174462.37            0    193779.02     118071.1   0.87057768 
      48         0.48    1757.5253   -197231.23   -197231.23    22768.038   -174463.19            0    194021.54    118071.32   0.87057608 
      49         0.49     1815.137   -197978.52   -197978.52    23514.374   -174464.15            0    194323.29    118071.54   0.87057444 
      50          0.5    1873.6052   -198736.66   -198736.66    24271.807   -174464.85            0     194682.3    118071.77   0.87057276 
      51         0.51    1932.9069   -199505.78   -199505.78    25040.036   -174465.74            0    195104.94       118072   0.87057106 
      52         0.52    1993.0177   -200285.55   -200285.55    25818.748    -174466.8            0    195594.57    118072.24   0.87056931 
      53         0.53    2053.9125   -201075.28   -201075.28    26607.616   -174467.66            0    196164.05    118072.48   0.87056754 
      54         0.54    2115.5657   -201875.04   -201875.04    27406.308   -174468.73            0    196794.31    118072.72   0.87056573 
      55         0.55    2177.9512   -202684.23   -202684.23    28214.487   -174469.74            0    197495.71    118072.97   0.87056389 
      56         0.56    2241.0425   -203502.38   -203502.38     29031.81   -174470.57            0    198265.41    118073.23   0.87056201 
      57         0.57    2304.8127   -204329.49   -204329.49    29857.928   -174471.56            0    199104.76    118073.49    0.8705601 
      58         0.58    2369.2353   -205165.08   -205165.08    30692.497   -174472.58            0    199995.43    118073.75   0.87055815 
      59         0.59    2434.2843   -206008.75   -206008.75    31535.181   -174473.57            0    200934.93    118074.02   0.87055617 
      60          0.6    2499.9341   -206860.13   -206860.13    32385.647   -174474.49            0    201914.25    118074.29   0.87055415 
      61         0.61    2566.1599   -207719.01   -207719.01    33243.577   -174475.43            0    202919.97    118074.57    0.8705521 
      62         0.62    2632.9383   -208585.04   -208585.04    34108.664   -174476.37            0    203940.97    118074.85   0.87055002 
      63         0.63    2700.2468    -209457.8    -209457.8    34980.618   -174477.19            0    204965.77    118075.14    0.8705479 
      64         0.64     2768.064   -210336.94   -210336.94    35859.164   -174477.77            0    205985.51    118075.43   0.87054574 
      65         0.65    2836.3702   -211222.65   -211222.65    36744.043   -174478.61            0    206985.12    118075.73   0.87054355 
      66         0.66    2905.1466   -212114.23   -212114.23    37635.014   -174479.22            0    207965.18    118076.03   0.87054132 
      67         0.67    2974.3758   -213011.95   -213011.95     38531.85    -174480.1            0     208899.5    118076.34   0.87053905 
      68         0.68    3044.0412   -213915.12   -213915.12    39434.337   -174480.78            0    209793.72    118076.65   0.87053675 
      69         0.69    3114.1268   -214823.93   -214823.93    40342.268   -174481.66            0    210642.36    118076.97   0.87053441 
      70          0.7    3184.6167   -215737.62   -215737.62    41255.436   -174482.19            0    211447.42    118077.29   0.87053204 
      71         0.71     3255.495   -216656.41   -216656.41    42173.637   -174482.78            0    212210.14    118077.62   0.87052963 
      72         0.72    3326.7457   -217580.19   -217580.19    43096.661   -174483.53            0    212931.37    118077.95   0.87052718 
      73         0.73    3398.3523   -218508.64   -218508.64    44024.297   -174484.34            0    213623.52    118078.29    0.8705247 
      74         0.74     3470.298   -219441.83   -219441.83    44956.325    -174485.5            0    214283.77    118078.63   0.87052218 
      75         0.75    3542.5655   -220378.99   -220378.99    45892.521   -174486.47            0    214924.67    118078.98   0.87051962 
      76         0.76    3615.1366    -221320.8    -221320.8     46832.65   -174488.15            0     215545.8    118079.33   0.87051702 
      77         0.77    3687.9931   -222266.25   -222266.25    47776.477   -174489.77            0    216154.23    118079.69   0.87051439 
      78         0.78     3761.116   -223215.17   -223215.17    48723.755   -174491.42            0    216754.58    118080.05   0.87051172 
      79         0.79    3834.4864   -224167.36   -224167.36    49674.239   -174493.12            0    217347.08    118080.42   0.87050901 
      80          0.8    3908.0851   -225122.38   -225122.38    50627.681    -174494.7            0    217934.11    118080.79   0.87050626 
      81         0.81    3981.8933   -226080.16   -226080.16    51583.837   -174496.32            0    218515.06    118081.17   0.87050348 
      82         0.82    4055.8923    -227040.4    -227040.4    52542.464   -174497.94            0    219090.69    118081.55   0.87050066 
      83         0.83    4130.0637      -228003      -228003    53503.325   -174499.68            0       219660    118081.94    0.8704978 
      84         0.84    4204.3895    -228967.6    -228967.6    54466.186   -174501.42            0    220220.66    118082.33    0.8704949 
      85         0.85    4278.8518   -229934.03   -229934.03    55430.816   -174503.21            0    220772.25    118082.73   0.87049196 
      86         0.86    4353.4335   -230902.17   -230902.17    56396.992   -174505.18            0    221313.23    118083.13   0.87048899 
      87         0.87    4428.1177   -231871.69   -231871.69    57364.496   -174507.19            0     221843.5    118083.54   0.87048598 
      88         0.88    4502.8879   -232842.27   -232842.27    58333.114   -174509.15            0    222364.71    118083.95   0.87048292 
      89         0.89    4577.7278   -233813.84   -233813.84    59302.635   -174511.21            0    222874.24    118084.37   0.87047983 
      90          0.9    4652.6214   -234786.09   -234786.09    60272.852   -174513.24            0       223375     118084.8   0.87047671 
      91         0.91    4727.5528   -235759.02   -235759.02    61243.557   -174515.46            0    223867.37    118085.23   0.87047354 
      92         0.92    4802.5064   -236732.11   -236732.11    62214.552   -174517.55            0       224351    118085.66   0.87047033 
      93         0.93    4877.4667   -237705.33   -237705.33    63185.632    -174519.7            0    224829.39     118086.1   0.87046709 
      94         0.94    4952.4182   -238678.63   -238678.63    64156.599   -174522.04            0    225300.52    118086.55    0.8704638 
      95         0.95    5027.3462   -239651.49   -239651.49    65127.261   -174524.23            0    225766.21       118087   0.87046048 
      96         0.96    5102.2354   -240624.14   -240624.14    66097.421   -174526.72            0    226228.61    118087.45   0.87045712 
      97         0.97    5177.0712   -241596.01   -241596.01    67066.889   -174529.12            0     226684.9    118087.92   0.87045372 
      98         0.98    5251.8394   -242566.97   -242566.97    68035.481   -174531.49            0    227132.27    118088.38   0.87045028 
      99         0.99    5326.5264   -243536.92   -243536.92    69003.021    -174533.9            0    227570.87    118088.86    0.8704468 
     100            1    5401.1188   -244505.75   -244505.75    69969.336   -174536.42            0    227999.56    118089.33   0.87044328 
     101         1.01    5475.6036    -245473.4    -245473.4    70934.256   -174539.15            0    228417.22    118089.82   0.87043972 
     102         1.02    5549.9681   -246439.36   -246439.36     71897.62   -174541.74            0     228821.4     118090.3   0.87043612 
     103         1.03    5624.2003   -247403.66   -247403.66    72859.268    -174544.4            0    229212.91     118090.8   0.87043248 
     104         1.04    5698.2884   -248366.24   -248366.24     73819.05   -174547.19            0    229590.91     118091.3    0.8704288 
     105         1.05    5772.2208   -249326.83   -249326.83    74776.815   -174550.01            0    229957.75     118091.8   0.87042508 
     106         1.06    5845.9861    -250285.4    -250285.4    75732.415   -174552.98            0    230311.28    118092.31   0.87042133 
     107         1.07    5919.5732   -251241.63   -251241.63    76685.706   -174555.92            0    230653.83    118092.83   0.87041753 
     108         1.08    5992.9709   -252195.57   -252195.57    77636.544   -174559.03            0    230988.36    118093.35   0.87041369 
     109         1.09    6066.1681   -253146.91   -253146.91    78584.784   -174562.13            0    231314.54    118093.87   0.87040981 
     110          1.1    6139.1539   -254095.57   -254095.57    79530.285   -174565.28            0    231632.66     118094.4   0.87040589 
     111         1.11    6211.9174    -255041.5    -255041.5    80472.909   -174568.59            0    231947.37    118094.94   0.87040194 
     112         1.12    6284.4482   -255984.49   -255984.49    81412.516   -174571.97            0    232254.71    118095.48   0.87039794 
     113         1.13     6356.736   -256924.31   -256924.31    82348.975   -174575.33            0    232555.73    118096.03    0.8703939 
     114         1.14    6428.7702   -257861.21   -257861.21     83282.15   -174579.06            0    232852.81    118096.59   0.87038982 
     115         1.15    6500.5406   -258794.64   -258794.64    84211.906   -174582.74            0    233150.18    118097.14    0.8703857 
     116         1.16    6572.0374    -259724.7    -259724.7    85138.118   -174586.58            0    233438.22    118097.71   0.87038154 
     117         1.17    6643.2515   -260650.94   -260650.94    86060.669   -174590.27            0    233718.96    118098.28   0.87037734 
     118         1.18    6714.1741   -261573.61   -261573.61    86979.443   -174594.17            0    233993.08    118098.85    0.8703731 
     119         1.19    6784.7959   -262492.47   -262492.47    87894.321   -174598.15            0    234267.39    118099.44   0.87036882 
     120          1.2    6855.1081    -263407.4    -263407.4    88805.187   -174602.21            0    234534.65    118100.02    0.8703645 
     121         1.21    6925.1025   -264318.34   -264318.34    89711.936   -174606.41            0    234793.87    118100.61   0.87036013 
     122         1.22    6994.7714   -265225.04   -265225.04    90614.468   -174610.57            0    235049.17    118101.21   0.87035573 
     123         1.23    7064.1069   -266127.36   -266127.36    91512.683   -174614.67            0    235298.61    118101.81   0.87035129 
     124         1.24    7133.1014    -267025.5    -267025.5    92406.479   -174619.02            0     235543.1    118102.42    0.8703468 
     125         1.25    7201.7469   -267919.28   -267919.28    93295.754   -174623.52            0    235789.74    118103.04   0.87034228 
     126         1.26    7270.0361   -268808.78   -268808.78    94180.413   -174628.37            0    236023.44    118103.66   0.87033771 
     127         1.27    7337.9624   -269693.56   -269693.56    95060.371   -174633.19            0    236257.46    118104.28    0.8703331 
     128         1.28    7405.5188   -270573.44   -270573.44    95935.537    -174637.9            0    236489.85    118104.91   0.87032845 
     129         1.29    7472.6989   -271448.53   -271448.53    96805.829    -174642.7            0    236716.18    118105.55   0.87032376 
     130          1.3    7539.4965   -272318.72   -272318.72    97671.166   -174647.56            0     236938.9    118106.19   0.87031903 
     131         1.31    7605.9054   -273183.78   -273183.78    98531.465   -174652.31            0    237163.13    118106.84   0.87031426 
     132         1.32    7671.9189   -274044.04   -274044.04    99386.644   -174657.39            0    237388.69    118107.49   0.87030945 
     133         1.33    7737.5314   -274899.14   -274899.14    100236.63   -174662.51            0    237608.56    118108.15   0.87030459 
     134         1.34     7802.738    -275749.1    -275749.1    101081.35   -174667.75            0    237820.93    118108.81    0.8702997 
     135         1.35    7867.5338   -276593.91   -276593.91    101920.76   -174673.15            0     238031.4    118109.48   0.87029476 
     136         1.36    7931.9136   -277433.19   -277433.19    102754.77   -174678.42            0    238242.74    118110.16   0.87028979 
     137         1.37    7995.8724   -278267.18   -278267.18    103583.33   -174683.85            0    238452.16    118110.84   0.87028477 
     138         1.38    8059.4061    -279095.9    -279095.9    104406.39   -174689.51            0    238654.35    118111.53   0.87027971 
     139         1.39    8122.5104   -279918.93   -279918.93    105223.88   -174695.05            0    238857.07    118112.22   0.87027461 
     140          1.4    8185.1809   -280736.48   -280736.48    106035.75   -174700.73            0    239057.68    118112.92   0.87026946 
     141         1.41    8247.4141   -281548.52   -281548.52    106841.95   -174706.57            0    239253.87    118113.62   0.87026428 
     142         1.42    8309.2065   -282354.95   -282354.95    107642.45    -174712.5            0    239453.15    118114.33   0.87025905 
     143         1.43    8370.5543   -283155.77   -283155.77    108437.19   -174718.58            0    239648.82    118115.05   0.87025378 
     144         1.44    8431.4542   -283950.71   -283950.71    109226.12   -174724.59            0    239840.23    118115.77   0.87024848 
     145         1.45    8491.9034   -284739.99   -284739.99    110009.22   -174730.78            0    240032.27    118116.49   0.87024313 
     146         1.46    8551.8987   -285523.58   -285523.58    110786.43   -174737.15            0    240221.94    118117.22   0.87023773 
     147         1.47    8611.4376   -286301.55   -286301.55    111557.73   -174743.81            0    240403.98    118117.96    0.8702323 
     148         1.48     8670.518   -287073.37   -287073.37     112323.1   -174750.27            0    240587.85    118118.71   0.87022682 
     149         1.49    8729.1375   -287839.38   -287839.38    113082.49   -174756.89            0       240766    118119.45   0.87022131 
     150          1.5    8787.2943   -288599.51   -288599.51    113835.89   -174763.62            0    240945.03    118120.21   0.87021575 
     151         1.51    8844.9865   -289353.65   -289353.65    114583.27   -174770.38            0    241119.43    118120.97   0.87021015 
     152         1.52    8902.2124   -290102.07   -290102.07     115324.6   -174777.46            0    241294.03    118121.73   0.87020451 
     153         1.53    8958.9706   -290844.56   -290844.56    116059.89   -174784.68            0    241461.84    118122.51   0.87019882 
     154         1.54    9015.2599   -291580.97   -291580.97    116789.09   -174791.88            0    241628.65    118123.28    0.8701931 
     155         1.55    9071.0793    -292311.3    -292311.3    117512.21   -174799.09            0    241793.49    118124.07   0.87018733 
     156         1.56    9126.4278    -293035.7    -293035.7    118229.23   -174806.48            0    241955.05    118124.86   0.87018152 
     157         1.57    9181.3044   -293754.11   -293754.11    118940.13   -174813.98            0    242113.87    118125.65   0.87017567 
     158         1.58    9235.7083   -294466.46   -294466.46    119644.91   -174821.55            0    242269.34    118126.45   0.87016977 
     159         1.59    9289.6393   -295173.19   -295173.19    120343.57   -174829.63            0    242422.63    118127.26   0.87016384 
     160          1.6    9343.0973   -295873.54   -295873.54    121036.09   -174837.45            0    242572.98    118128.07   0.87015786 
     161         1.61    9396.0822   -296567.88   -296567.88    121722.49   -174845.39            0    242720.97    118128.88   0.87015184 
     162         1.62     9448.594   -297256.27   -297256.27    122402.76   -174853.51            0    242865.48    118129.71   0.87014578 
     163         1.63    9500.6329   -297938.65   -297938.65     123076.9   -174861.75            0    243007.49    118130.54   0.87013967 
     164         1.64    9552.1991   -298614.99   -298614.99    123744.92   -174870.07            0    243146.95    118131.37   0.87013353 
     165         1.65     9603.293   -299285.45   -299285.45    124406.82   -174878.62            0     243282.7    118132.21   0.87012734 
     166         1.66    9653.9153    -299949.9    -299949.9    125062.62   -174887.29            0    243416.63    118133.06   0.87012111 
     167         1.67    9704.0664   -300608.39   -300608.39     125712.3   -174896.08            0    243547.18    118133.91   0.87011484 
     168         1.68    9753.7472   -301260.89   -301260.89     126355.9   -174904.99            0    243675.07    118134.76   0.87010852 
     169         1.69    9802.9586   -301907.46   -301907.46    126993.41   -174914.05            0    243800.37    118135.63   0.87010217 
     170          1.7    9851.7015   -302548.18   -302548.18    127624.86   -174923.32            0    243921.25     118136.5   0.87009577 
     171         1.71     9899.977   -303182.95   -303182.95    128250.25    -174932.7            0     244039.4    118137.37   0.87008933 
     172         1.72    9947.7862    -303811.8    -303811.8     128869.6    -174942.2            0     244152.5    118138.25   0.87008284 
     173         1.73    9995.1304   -304434.89   -304434.89    129482.92   -174951.97            0    244265.47    118139.14   0.87007632 
     174         1.74    10042.011   -305051.88   -305051.88    130090.24   -174961.64            0     244375.6    118140.03   0.87006975 
     175         1.75     10088.43   -305662.97   -305662.97    130691.58   -174971.39            0    244482.85    118140.93   0.87006314 
     176         1.76    10134.388   -306268.23   -306268.23    131286.94   -174981.28            0     244587.8    118141.83   0.87005649 
     177         1.77    10179.887   -306867.79   -306867.79    131876.37   -174991.43            0    244689.47    118142.74   0.87004979 
     178         1.78    10224.929   -307461.55   -307461.55    132459.87   -175001.69            0    244788.94    118143.65   0.87004305 
     179         1.79    10269.515    -308049.8    -308049.8    133037.46   -175012.34            0    244887.37    118144.57   0.87003627 
     180          1.8    10313.648      -308632      -308632    133609.19   -175022.81            0    244981.38     118145.5   0.87002945 
     181         1.81    10357.329   -309208.66   -309208.66    134175.06    -175033.6            0    245071.95    118146.43   0.87002259 
     182         1.82     10400.56   -309779.55   -309779.55    134735.11   -175044.45            0    245159.58    118147.37   0.87001568 
     183         1.83    10443.344   -310344.76   -310344.76    135289.35   -175055.41            0    245245.46    118148.32   0.87000873 
     184         1.84    10485.683   -310904.44   -310904.44    135837.83   -175066.61            0       245328    118149.26   0.87000174 
     185         1.85    10527.578   -311458.37   -311458.37    136380.56   -175077.81            0    245408.78    118150.22    0.8699947 
     186         1.86    10569.032    -312006.8    -312006.8    136917.58   -175089.21            0    245486.32    118151.18   0.86998763 
     187         1.87    10610.047    -312549.7    -312549.7    137448.92   -175100.78            0    245561.76    118152.15   0.86998051 
     188         1.88    10650.626   -313087.09   -313087.09     137974.6   -175112.48            0     245633.2    118153.12   0.86997335 
     189         1.89    10690.771   -313619.01   -313619.01    138494.66   -175124.35            0       245702     118154.1   0.86996614 
     190          1.9    10730.484   -314145.49   -314145.49    139009.13   -175136.36            0    245768.61    118155.08    0.8699589 
     191         1.91    10769.768   -314666.42   -314666.42    139518.04   -175148.37            0     245833.9    118156.07   0.86995161 
     192         1.92    10808.626   -315181.97   -315181.97    140021.43   -175160.55            0    245895.98    118157.07   0.86994427 
     193         1.93    10847.059   -315692.23   -315692.23    140519.32   -175172.91            0    245956.84    118158.07    0.8699369 
     194         1.94    10885.071   -316197.13   -316197.13    141011.75   -175185.38            0    246019.26    118159.08   0.86992948 
     195         1.95    10922.665   -316696.74   -316696.74    141498.76   -175197.98            0    246074.77    118160.09   0.86992202 
     196         1.96    10959.842   -317191.15   -317191.15    141980.37   -175210.78            0    246128.27    118161.11   0.86991452 
     197         1.97    10996.606   -317680.36   -317680.36    142456.64   -175223.72            0    246180.08    118162.14   0.86990698 
     198         1.98    11032.959   -318164.52   -318164.52    142927.58   -175236.94            0     246228.5    118163.17   0.86989939 
     199         1.99    11068.905   -318643.37   -318643.37    143393.24   -175250.13            0    246275.18     118164.2   0.86989176 
     200            2    11104.445   -319117.29   -319117.29    143853.65   -175263.64            0    246320.07    118165.24   0.86988409 
     201         2.01    11139.583   -319586.04   -319586.04    144308.85   -175277.19            0    246362.54    118166.29   0.86987637 
     202         2.02    11174.322   -320049.79   -320049.79    144758.88   -175290.91            0    246403.09    118167.35   0.86986861 
     203         2.03    11208.664   -320508.54   -320508.54    145203.77   -175304.78            0    246440.59    118168.41   0.86986081 
     204         2.04    11242.613   -320962.35   -320962.35    145643.55   -175318.79            0    246476.02    118169.47   0.86985297 
     205         2.05     11276.17   -321411.41   -321411.41    146078.28   -175333.13            0    246509.21    118170.54   0.86984508 
     206         2.06     11309.34   -321855.58   -321855.58    146507.98   -175347.59            0    246538.92    118171.62   0.86983715 
     207         2.07    11342.125    -322294.7    -322294.7     146932.7   -175362.01            0    246568.03     118172.7   0.86982918 
     208         2.08    11374.528   -322729.18   -322729.18    147352.46   -175376.72            0       246595    118173.79   0.86982117 
     209         2.09    11406.551   -323158.85   -323158.85    147767.32   -175391.53            0    246621.16    118174.89   0.86981311 
     210          2.1    11438.199   -323583.76   -323583.76     148177.3   -175406.46            0    246645.14    118175.99   0.86980501 
     211         2.11    11469.474   -324004.38   -324004.38    148582.45   -175421.93            0    246670.88    118177.09   0.86979687 
     212         2.12    11500.378   -324419.96   -324419.96     148982.8   -175437.16            0    246690.75     118178.2   0.86978869 
     213         2.13    11530.916   -324830.97   -324830.97     149378.4   -175452.57            0    246708.14    118179.32   0.86978046 
     214         2.14    11561.089   -325237.46   -325237.46    149769.29   -175468.16            0    246724.44    118180.45   0.86977219 
     215         2.15    11590.902   -325639.45   -325639.45     150155.5   -175483.95            0    246735.76    118181.58   0.86976388 
     216         2.16    11620.356   -326037.01   -326037.01    150537.07   -175499.94            0    246748.32    118182.71   0.86975552 
     217         2.17    11649.456   -326430.01   -326430.01    150914.05   -175515.97            0    246759.68    118183.85   0.86974713 
     218         2.18    11678.203   -326818.72   -326818.72    151286.46   -175532.26            0    246768.86       118185   0.86973869 
     219         2.19    11706.602   -327202.83   -327202.83    151654.35   -175548.48            0    246776.39    118186.15    0.8697302 
     220          2.2    11734.655   -327582.85   -327582.85    152017.77   -175565.09            0    246780.28    118187.31   0.86972168 
     221         2.21    11762.365    -327958.4    -327958.4    152376.74   -175581.66            0    246783.32    118188.47   0.86971311 
     222         2.22    11789.735   -328329.74   -328329.74     152731.3   -175598.44            0    246786.24    118189.64    0.8697045 
     223         2.23    11816.767   -328696.87   -328696.87     153081.5   -175615.37            0    246785.98    118190.82   0.86969584 
     224         2.24    11843.466   -329059.94   -329059.94    153427.37   -175632.57            0    246782.98       118192   0.86968715 
     225         2.25    11869.834   -329418.85   -329418.85    153768.96   -175649.88            0    246779.31    118193.19   0.86967841 
     226         2.26    11895.875   -329773.59   -329773.59     154106.3   -175667.29            0     246774.3    118194.38   0.86966963 
     227         2.27     11921.59   -330124.27   -330124.27    154439.43   -175684.84            0    246767.61    118195.58    0.8696608 
     228         2.28    11946.983   -330470.86   -330470.86     154768.4   -175702.46            0    246758.87    118196.79   0.86965194 
     229         2.29    11972.058   -330813.62   -330813.62    155093.23   -175720.39            0    246748.25       118198   0.86964303 
     230          2.3    11996.817   -331152.39   -331152.39    155413.97   -175738.41            0    246735.48    118199.22   0.86963408 
     231         2.31    12021.263   -331487.26   -331487.26    155730.66    -175756.6            0    246720.58    118200.44   0.86962508 
     232         2.32    12045.399   -331818.25   -331818.25    156043.34   -175774.92            0    246704.27    118201.67   0.86961604 
     233         2.33    12069.229    -332145.5    -332145.5    156352.04   -175793.46            0    246685.01     118202.9   0.86960696 
     234         2.34    12092.754    -332468.8    -332468.8     156656.8      -175812            0    246665.33    118204.14   0.86959784 
     235         2.35    12115.978   -332788.55   -332788.55    156957.66   -175830.89            0    246642.89    118205.39   0.86958868 
     236         2.36    12138.905   -333104.56   -333104.56    157254.66    -175849.9            0     246619.8    118206.64   0.86957947 
     237         2.37    12161.536   -333416.83   -333416.83    157547.84   -175868.99            0    246595.21     118207.9   0.86957022 
     238         2.38    12183.874   -333725.51   -333725.51    157837.22   -175888.29            0    246567.23    118209.16   0.86956093 
     239         2.39    12205.924    -334030.5    -334030.5    158122.86   -175907.64            0    246538.65    118210.43   0.86955159 
     240          2.4    12227.686   -334332.05   -334332.05    158404.79   -175927.26            0    246507.65     118211.7   0.86954221 
     241         2.41    12249.165   -334629.95   -334629.95    158683.04   -175946.91            0    246475.03    118212.98   0.86953279 
     242         2.42    12270.363   -334924.43   -334924.43    158957.65   -175966.78            0    246442.03    118214.27   0.86952333 
     243         2.43    12291.283   -335215.53   -335215.53    159228.66   -175986.87            0    246405.34    118215.56   0.86951382 
     244         2.44    12311.927   -335503.13   -335503.13     159496.1   -176007.03            0    246369.39    118216.86   0.86950427 
     245         2.45    12332.299   -335787.42   -335787.42    159760.01   -176027.41            0    246331.41    118218.16   0.86949468 
     246         2.46    12352.401   -336068.29   -336068.29    160020.42   -176047.87            0     246292.3    118219.47   0.86948505 
     247         2.47    12372.236   -336345.82   -336345.82    160277.38   -176068.44            0    246251.38    118220.79   0.86947538 
     248         2.48    12391.807   -336620.16   -336620.16    160530.91   -176089.25            0    246212.44    118222.11   0.86946566 
     249         2.49    12411.115   -336891.22   -336891.22    160781.04   -176110.18            0    246172.66    118223.44    0.8694559 
     250          2.5    12430.164   -337159.05   -337159.05     161027.8   -176131.25            0    246132.16    118224.77   0.86944609 
     251         2.51    12448.954   -337423.67   -337423.67    161271.23   -176152.44            0    246096.54    118226.11   0.86943625 
     252         2.52     12467.49   -337685.25   -337685.25    161511.35    -176173.9            0    246052.74    118227.45   0.86942636 
     253         2.53    12485.773   -337943.65   -337943.65     161748.2   -176195.45            0    246014.36    118228.81   0.86941643 
     254         2.54    12503.805   -338199.01   -338199.01     161981.8   -176217.21            0    245978.72    118230.16   0.86940646 
     255         2.55    12521.589   -338451.29   -338451.29    162212.19    -176239.1            0    245935.36    118231.52   0.86939644 
     256         2.56     12539.13   -338700.41   -338700.41    162439.42   -176260.99            0    245884.55    118232.89   0.86938638 
     257         2.57     12556.43   -338946.71   -338946.71    162663.53   -176283.17            0    245838.87    118234.26   0.86937628 
     258         2.58    12573.491   -339189.96   -339189.96    162884.55   -176305.41            0       245796    118235.64   0.86936614 
     259         2.59    12590.314    -339430.3    -339430.3    163102.49   -176327.81            0     245751.2    118237.03   0.86935596 
     260          2.6    12606.904   -339667.69   -339667.69    163317.41   -176350.28            0    245699.72    118238.42   0.86934573 
     261         2.61    12623.264   -339902.33   -339902.33    163529.35   -176372.98            0    245648.47    118239.82   0.86933546 
     262         2.62    12639.398   -340134.06   -340134.06    163738.35   -176395.71            0    245591.72    118241.22   0.86932515 
     263         2.63    12655.307   -340363.05   -340363.05    163944.45    -176418.6            0    245537.06    118242.63    0.8693148 
     264         2.64    12670.995   -340589.32   -340589.32    164147.68   -176441.64            0    245478.77    118244.04    0.8693044 
     265         2.65    12686.464   -340812.86   -340812.86    164348.08   -176464.78            0    245419.21    118245.46   0.86929396 
     266         2.66    12701.718   -341033.91   -341033.91    164545.68   -176488.22            0    245359.27    118246.89   0.86928348 
     267         2.67    12716.758   -341252.19   -341252.19    164740.52   -176511.66            0    245298.05    118248.32   0.86927296 
     268         2.68    12731.588   -341467.97   -341467.97    164932.63   -176535.34            0    245237.55    118249.76   0.86926239 
     269         2.69    12746.209   -341681.44   -341681.44    165122.05   -176559.39            0    245173.65     118251.2   0.86925178 
     270          2.7    12760.626   -341892.07   -341892.07    165308.81   -176583.26            0    245107.71    118252.65   0.86924113 
     271         2.71     12774.84   -342100.22   -342100.22    165492.95   -176607.27            0    245041.82     118254.1   0.86923044 
     272         2.72    12788.854   -342306.12   -342306.12     165674.5   -176631.62            0    244975.62    118255.56   0.86921971 
     273         2.73    12802.671   -342509.31   -342509.31    165853.48   -176655.83            0    244907.59    118257.03   0.86920893 
     274         2.74    12816.292   -342710.07   -342710.07    166029.94   -176680.13            0    244839.52     118258.5   0.86919811 
     275         2.75     12829.72   -342908.67   -342908.67    166203.89   -176704.78            0    244770.37    118259.98   0.86918725 
     276         2.76    12842.957    -343104.8    -343104.8    166375.38   -176729.41            0    244700.36    118261.46   0.86917635 
     277         2.77    12856.007   -343298.61   -343298.61    166544.43   -176754.17            0    244630.14    118262.95    0.8691654 
     278         2.78     12868.87   -343490.14   -343490.14    166711.07   -176779.07            0    244558.75    118264.45   0.86915442 
     279         2.79    12881.549   -343679.47   -343679.47    166875.32   -176804.15            0    244486.37    118265.95   0.86914339 
     280          2.8    12894.046   -343866.51   -343866.51    167037.22   -176829.29            0    244413.77    118267.45   0.86913232 
     281         2.81    12906.363   -344051.28   -344051.28    167196.78   -176854.51            0    244340.56    118268.97    0.8691212 
     282         2.82    12918.501   -344233.93   -344233.93    167354.02    -176879.9            0    244267.35    118270.48   0.86911005 
     283         2.83    12930.464   -344414.46   -344414.46       167509   -176905.46            0    244191.72    118272.01   0.86909885 
     284         2.84    12942.253   -344593.01   -344593.01    167661.72   -176931.29            0    244116.63    118273.54   0.86908761 
     285         2.85     12953.87   -344769.24   -344769.24    167812.22   -176957.02            0    244041.19    118275.07   0.86907633 
     286         2.86    12965.318   -344943.34   -344943.34    167960.52   -176982.82            0    243963.74    118276.61   0.86906501 
     287         2.87    12976.598   -345115.34   -345115.34    168106.64    -177008.7            0    243886.12    118278.16   0.86905364 
     288         2.88    12987.711   -345285.42   -345285.42    168250.61   -177034.81            0    243808.93    118279.71   0.86904224 
     289         2.89    12998.661   -345453.63   -345453.63    168392.47   -177061.17            0    243729.41    118281.27   0.86903079 
     290          2.9     13009.45   -345619.64   -345619.64    168532.23   -177087.41            0    243651.19    118282.83    0.8690193 
     291         2.91    13020.079    -345783.7    -345783.7    168669.92   -177113.79            0    243570.77     118284.4   0.86900776 
     292         2.92    13030.549   -345946.31   -345946.31    168805.56   -177140.75            0    243494.31    118285.98   0.86899619 
     293         2.93    13040.865   -346106.57   -346106.57    168939.19   -177167.38            0    243414.93    118287.56   0.86898457 
     294         2.94    13051.026   -346265.02   -346265.02    169070.83   -177194.19            0    243333.87    118289.15   0.86897291 
     295         2.95    13061.036   -346421.49   -346421.49     169200.5   -177220.99            0    243255.12    118290.74   0.86896121 
     296         2.96    13070.896   -346576.24   -346576.24    169328.24   -177248.01            0     243174.4    118292.34   0.86894947 
     297         2.97    13080.609   -346728.99   -346728.99    169454.06   -177274.93            0    243095.57    118293.94   0.86893769 
     298         2.98    13090.175   -346880.02   -346880.02    169577.99   -177302.02            0    243017.84    118295.55   0.86892586 
     299         2.99    13099.599   -347029.28   -347029.28    169700.07   -177329.21            0    242937.28    118297.17     0.868914 
     300            3     13108.88   -347176.74   -347176.74    169820.31   -177356.43            0    242858.39    118298.79   0.86890209 
     301         3.01    13118.022   -347322.43   -347322.43    169938.74   -177383.69            0    242778.72    118300.42   0.86889014 
     302         3.02    13127.027   -347466.55   -347466.55    170055.39   -177411.17            0    242699.13    118302.05   0.86887815 
     303         3.03    13135.896   -347608.95   -347608.95    170170.28   -177438.67            0     242619.8    118303.69   0.86886611 
     304         3.04    13144.631   -347749.71   -347749.71    170283.44   -177466.27            0    242540.89    118305.33   0.86885404 
     305         3.05    13153.235   -347888.95   -347888.95    170394.91   -177494.05            0    242461.65    118306.98   0.86884192 
     306         3.06     13161.71    -348026.6    -348026.6    170504.69   -177521.91            0    242382.23    118308.64   0.86882976 
     307         3.07    13170.057   -348162.74   -348162.74    170612.83   -177549.91            0    242302.49     118310.3   0.86881756 
     308         3.08    13178.279   -348297.19   -348297.19    170719.34   -177577.85            0    242222.59    118311.97   0.86880532 
     309         3.09    13186.377   -348430.39   -348430.39    170824.24   -177606.15            0    242143.91    118313.64   0.86879304 
     310          3.1    13194.353   -348561.91   -348561.91    170927.57   -177634.34            0    242064.69    118315.32   0.86878072 
     311         3.11     13202.21   -348691.92   -348691.92    171029.35   -177662.57            0    241986.88       118317   0.86876835 
     312         3.12    13209.948   -348820.54   -348820.54     171129.6   -177690.93            0    241907.45    118318.69   0.86875594 
     313         3.13    13217.571   -348947.88   -348947.88    171228.35   -177719.53            0    241828.92    118320.39   0.86874349 
     314         3.14     13225.08   -349074.12   -349074.12    171325.62   -177748.49            0    241750.64    118322.09     0.868731 
     315         3.15    13232.476   -349198.56   -349198.56    171421.44   -177777.12            0    241674.24    118323.79   0.86871847 
     316         3.16    13239.762   -349321.69   -349321.69    171515.83   -177805.86            0    241597.54    118325.51    0.8687059 
     317         3.17     13246.94   -349443.62   -349443.62    171608.81   -177834.81            0     241522.4    118327.22   0.86869329 
     318         3.18    13254.011   -349563.99   -349563.99    171700.41   -177863.58            0    241445.59    118328.95   0.86868063 
     319         3.19    13260.977   -349683.13   -349683.13    171790.66   -177892.48            0    241371.02    118330.68   0.86866793 
     320          3.2     13267.84   -349801.07   -349801.07    171879.57    -177921.5            0    241296.28    118332.41    0.8686552 
     321         3.21    13274.602   -349917.71   -349917.71    171967.17   -177950.53            0    241222.06    118334.15   0.86864242 
     322         3.22    13281.265   -350033.04   -350033.04    172053.49   -177979.55            0    241148.41     118335.9    0.8686296 
     323         3.23    13287.831   -350147.39   -350147.39    172138.54   -178008.86            0    241077.77    118337.65   0.86861673 
     324         3.24      13294.3   -350260.45   -350260.45    172222.35    -178038.1            0    241006.17    118339.41   0.86860383 
     325         3.25    13300.676   -350372.25   -350372.25    172304.94    -178067.3            0    240935.11    118341.17   0.86859089 
     326         3.26     13306.96    -350483.1    -350483.1    172386.35   -178096.76            0    240866.49    118342.94    0.8685779 
     327         3.27    13313.153   -350592.69   -350592.69    172466.58   -178126.12            0    240797.52    118344.72   0.86856488 
     328         3.28    13319.258   -350701.27   -350701.27    172545.66   -178155.61            0    240728.27     118346.5   0.86855181 
     329         3.29    13325.276   -350808.62   -350808.62    172623.62   -178184.99            0    240662.07    118348.29    0.8685387 
     330          3.3    13331.209   -350914.96   -350914.96    172700.48   -178214.48            0    240595.66    118350.08   0.86852555 
     331         3.31    13337.058   -351020.28   -351020.28    172776.26   -178244.01            0    240529.95    118351.87   0.86851236 
     332         3.32    13342.826   -351124.55   -351124.55    172850.99   -178273.57            0    240465.75    118353.68   0.86849913 
     333         3.33    13348.515   -351227.88   -351227.88    172924.68    -178303.2            0    240404.45    118355.49   0.86848585 
     334         3.34    13354.125   -351330.14   -351330.14    172997.35   -178332.79            0    240343.25     118357.3   0.86847254 
     335         3.35    13359.659    -351431.5    -351431.5    173069.04   -178362.46            0    240283.93    118359.12   0.86845918 
     336         3.36    13365.118   -351531.78   -351531.78    173139.76   -178392.02            0    240225.41    118360.95   0.86844579 
     337         3.37    13370.504   -351631.25   -351631.25    173209.54   -178421.72            0    240169.96    118362.78   0.86843235 
     338         3.38    13375.819   -351729.92   -351729.92    173278.39   -178451.54            0    240112.97    118364.62   0.86841887 
     339         3.39    13381.064   -351827.95   -351827.95    173346.33   -178481.61            0    240058.16    118366.46   0.86840535 
     340          3.4     13386.24    -351924.9    -351924.9    173413.39    -178511.5            0     240003.9    118368.31   0.86839179 
     341         3.41     13391.35   -352021.17   -352021.17    173479.59   -178541.58            0    239950.59    118370.16   0.86837819 
     342         3.42    13396.395   -352116.55   -352116.55    173544.94    -178571.6            0    239898.43    118372.02   0.86836455 
     343         3.43    13401.375   -352211.28   -352211.28    173609.46   -178601.81            0    239849.49    118373.89   0.86835087 
     344         3.44    13406.294   -352305.07   -352305.07    173673.18   -178631.89            0    239801.62    118375.76   0.86833714 
     345         3.45    13411.151   -352398.01   -352398.01    173736.11    -178661.9            0    239754.08    118377.63   0.86832338 
     346         3.46    13415.949   -352490.23   -352490.23    173798.26   -178691.97            0    239708.27    118379.51   0.86830957 
     347         3.47    13420.688   -352582.15   -352582.15    173859.65   -178722.51            0    239667.26     118381.4   0.86829573 
     348         3.48     13425.37   -352673.14   -352673.14     173920.3   -178752.84            0    239624.91     118383.3   0.86828184 
     349         3.49    13429.996    -352763.4    -352763.4    173980.23   -178783.18            0    239586.08    118385.19   0.86826791 
     350          3.5    13434.567   -352852.84   -352852.84    174039.45    -178813.4            0    239548.33     118387.1   0.86825394 
     351         3.51    13439.084    -352941.7    -352941.7    174097.97   -178843.73            0    239511.45    118389.01   0.86823994 
     352         3.52     13443.55   -353029.94   -353029.94    174155.81   -178874.13            0    239477.65    118390.93   0.86822589 
     353         3.53    13447.963   -353117.47   -353117.47    174212.99   -178904.48            0    239445.03    118392.85   0.86821179 
     354         3.54    13452.326   -353204.39   -353204.39    174269.51   -178934.88            0    239412.63    118394.77   0.86819766 
     355         3.55     13456.64   -353290.66   -353290.66    174325.39   -178965.27            0    239383.64    118396.71   0.86818349 
     356         3.56    13460.904    -353376.4    -353376.4    174380.63   -178995.77            0    239356.03    118398.64   0.86816928 
     357         3.57    13465.121   -353461.48   -353461.48    174435.26   -179026.22            0    239329.49    118400.59   0.86815503 
     358         3.58     13469.29    -353546.1    -353546.1    174489.28   -179056.83            0    239305.73    118402.54   0.86814073 
     359         3.59    13473.413   -353629.97   -353629.97    174542.69   -179087.28            0    239288.13    118404.49    0.8681264 
     360          3.6    13477.491   -353713.45   -353713.45    174595.51   -179117.95            0    239267.65    118406.45   0.86811202 
     361         3.61    13481.524    -353796.3    -353796.3    174647.75   -179148.54            0    239247.79    118408.42   0.86809761 
     362         3.62    13485.513   -353878.54   -353878.54    174699.43    -179179.1            0    239229.87    118410.39   0.86808315 
     363         3.63    13489.459   -353960.45   -353960.45    174750.55   -179209.89            0    239214.49    118412.37   0.86806865 
     364         3.64    13493.362    -354041.7    -354041.7    174801.11   -179240.59            0    239202.78    118414.35   0.86805411 
     365         3.65    13497.222   -354122.34   -354122.34    174851.12   -179271.21            0    239187.34    118416.34   0.86803954 
     366         3.66    13501.041   -354202.43   -354202.43     174900.6   -179301.83            0    239176.19    118418.34   0.86802492 
     367         3.67    13504.818   -354282.14   -354282.14    174949.53   -179332.61            0     239160.5    118420.34   0.86801026 
     368         3.68    13508.553   -354361.34   -354361.34    174997.91   -179363.43            0    239154.56    118422.34   0.86799556 
     369         3.69    13512.246    -354439.9    -354439.9    175045.74   -179394.15            0    239140.79    118424.35   0.86798082 
     370          3.7    13515.896   -354517.89   -354517.89    175093.03   -179424.86            0    239127.09    118426.37   0.86796604 
     371         3.71    13519.502   -354595.31   -354595.31    175139.74   -179455.56            0    239118.37    118428.39   0.86795122 
     372         3.72    13523.063   -354672.12   -354672.12    175185.88   -179486.24            0     239106.1    118430.42   0.86793635 
     373         3.73    13526.578   -354748.39   -354748.39    175231.42   -179516.97            0    239098.48    118432.45   0.86792145 
     374         3.74    13530.045   -354824.13   -354824.13    175276.33    -179547.8            0    239094.91    118434.49   0.86790651 
     375         3.75    13533.462   -354899.16   -354899.16    175320.59   -179578.56            0    239088.66    118436.54   0.86789152 
     376         3.76    13536.828   -354973.62   -354973.62     175364.2   -179609.42            0    239085.85    118438.59    0.8678765 
     377         3.77    13540.141   -355047.13   -355047.13    175407.12   -179640.01            0    239081.93    118440.64   0.86786144 
     378         3.78    13543.401   -355120.06   -355120.06    175449.35   -179670.71            0    239079.19     118442.7   0.86784633 
     379         3.79    13546.606   -355192.32   -355192.32    175490.86   -179701.46            0    239091.71    118444.77   0.86783119 
     380          3.8    13549.754   -355263.78   -355263.78    175531.66   -179732.13            0    239092.22    118446.84     0.867816 
     381         3.81    13552.849   -355334.76   -355334.76    175571.74   -179763.02            0    239094.15    118448.92   0.86780078 
     382         3.82    13555.889   -355404.97   -355404.97    175611.12   -179793.85            0    239098.27       118451   0.86778551 
     383         3.83    13558.876   -355474.39   -355474.39    175649.82   -179824.57            0     239097.3    118453.09    0.8677702 
     384         3.84    13561.811   -355543.08   -355543.08    175687.84   -179855.24            0    239100.05    118455.19   0.86775486 
     385         3.85    13564.695   -355611.15   -355611.15    175725.21   -179885.95            0    239103.93    118457.29   0.86773947 
     386         3.86    13567.531   -355678.59   -355678.59    175761.94   -179916.65            0    239105.44     118459.4   0.86772404 
     387         3.87    13570.321   -355745.37   -355745.37    175798.09   -179947.28            0    239096.28    118461.51   0.86770857 
     388         3.88    13573.068   -355811.64   -355811.64    175833.67   -179977.97            0    239085.46    118463.62   0.86769307 
     389         3.89    13575.774   -355877.36   -355877.36    175868.73   -180008.64            0    239067.78    118465.75   0.86767752 
     390          3.9    13578.441   -355942.59   -355942.59    175903.27   -180039.32            0    239048.77    118467.88   0.86766193 
     391         3.91     13581.07   -356007.36   -356007.36    175937.33   -180070.03            0    239020.77    118470.01    0.8676463 
     392         3.92    13583.663   -356071.56   -356071.56    175970.93   -180100.63            0     238988.9    118472.15   0.86763063 
     393         3.93    13586.221   -356135.48   -356135.48    176004.07   -180131.41            0    238958.97    118474.29   0.86761492 
     394         3.94    13588.744   -356199.11   -356199.11    176036.75   -180162.36            0    238905.46    118476.45   0.86759917 
     395         3.95    13591.231   -356261.97   -356261.97    176068.97      -180193            0    238870.26     118478.6   0.86758338 
     396         3.96    13593.683   -356324.43   -356324.43    176100.73    -180223.7            0    238824.59    118480.76   0.86756755 
     397         3.97    13596.098   -356386.37   -356386.37    176132.02   -180254.35            0    238780.05    118482.93   0.86755168 
     398         3.98    13598.476    -356447.8    -356447.8    176162.82   -180284.98            0    238735.14     118485.1   0.86753577 
     399         3.99    13600.814   -356508.67   -356508.67    176193.11   -180315.55            0     238694.9    118487.28   0.86751982 
     400            4    13603.111   -356568.99   -356568.99    176222.86   -180346.12            0    238654.62    118489.47   0.86750383 
     401         4.01    13605.363   -356629.01   -356629.01    176252.05   -180376.97            0    238598.72    118491.66    0.8674878 
     402         4.02     13607.57   -356688.16   -356688.16    176280.64   -180407.53            0    238554.84    118493.85   0.86747172 
     403         4.03    13609.729    -356746.7    -356746.7     176308.6    -180438.1            0    238519.12    118496.05   0.86745561 
     404         4.04    13611.839   -356804.52   -356804.52    176335.93   -180468.59            0    238481.54    118498.26   0.86743946 
     405         4.05    13613.897   -356861.66   -356861.66     176362.6   -180499.06            0    238446.31    118500.47   0.86742327 
     406         4.06    13615.903   -356918.16   -356918.16    176388.59   -180529.57            0    238413.69    118502.69   0.86740704 
     407         4.07    13617.857      -356974      -356974     176413.9    -180560.1            0    238382.84    118504.91   0.86739077 
     408         4.08    13619.758   -357029.11   -357029.11    176438.52   -180590.58            0    238353.15    118507.14   0.86737446 
     409         4.09    13621.607   -357083.63   -357083.63    176462.48   -180621.14            0    238323.43    118509.37   0.86735811 
     410          4.1    13623.406   -357137.41   -357137.41    176485.78   -180651.62            0     238292.1    118511.61   0.86734172 
     411         4.11    13625.156   -357190.46   -357190.46    176508.45   -180682.01            0    238259.82    118513.86   0.86732529 
     412         4.12     13626.86   -357242.92   -357242.92    176530.53   -180712.39            0    238225.84    118516.11   0.86730881 
     413         4.13    13628.521   -357294.93   -357294.93    176552.05   -180742.89            0    238187.95    118518.36    0.8672923 
     414         4.14    13630.144   -357346.32   -357346.32    176573.07   -180773.26            0    238145.43    118520.63   0.86727575 
     415         4.15    13631.731   -357397.21   -357397.21    176593.63   -180803.58            0    238099.91    118522.89   0.86725916 
     416         4.16    13633.289   -357447.88   -357447.88    176613.81   -180834.07            0    238046.85    118525.17   0.86724253 
     417         4.17    13634.821   -357498.22   -357498.22    176633.65   -180864.57            0    237972.96    118527.44   0.86722586 
     418         4.18    13636.332   -357548.12   -357548.12    176653.23   -180894.89            0    237899.69    118529.73   0.86720915 
     419         4.19    13637.827   -357597.95   -357597.95    176672.59   -180925.36            0    237819.35    118532.02    0.8671924 
     420          4.2     13639.31    -357647.4    -357647.4    176691.81   -180955.59            0    237737.28    118534.31   0.86717562 
     421         4.21    13640.787   -357696.88   -357696.88    176710.94   -180985.94            0    237650.47    118536.61   0.86715879 
     422         4.22    13642.261   -357746.18   -357746.18    176730.05   -181016.13            0     237556.1    118538.92   0.86714192 
     423         4.23    13643.738   -357795.41   -357795.41    176749.17   -181046.24            0    237455.32    118541.23   0.86712501 
     424         4.24     13645.22   -357844.98   -357844.98    176768.37    -181076.6            0    237348.45    118543.55   0.86710806 
     425         4.25    13646.711   -357894.72   -357894.72     176787.7   -181107.03            0    237234.86    118545.87   0.86709107 
     426         4.26    13648.216   -357944.41   -357944.41    176807.18   -181137.23            0    237117.39     118548.2   0.86707405 
     427         4.27    13649.736   -357994.38   -357994.38    176826.88    -181167.5            0    236993.39    118550.53   0.86705698 
     428         4.28    13651.275   -358044.67   -358044.67    176846.82   -181197.85            0     236866.9    118552.87   0.86703988 
     429         4.29    13652.835    -358095.1    -358095.1    176867.03   -181228.07            0    236731.87    118555.21   0.86702273 
     430          4.3    13654.419   -358145.59   -358145.59    176887.55   -181258.04            0    236593.35    118557.56   0.86700555 
     431         4.31    13656.029   -358196.63   -358196.63     176908.4   -181288.23            0    236451.23    118559.92   0.86698832 
     432         4.32    13657.667   -358247.94   -358247.94    176929.62   -181318.32            0     236305.1    118562.28   0.86697106 
     433         4.33    13659.334   -358299.86   -358299.86    176951.22   -181348.64            0    236137.98    118564.65   0.86695376 
     434         4.34    13661.032   -358352.02   -358352.02    176973.22    -181378.8            0    235983.12    118567.02   0.86693642 
     435         4.35    13662.764   -358404.69   -358404.69    176995.65   -181409.05            0    235825.41     118569.4   0.86691904 
     436         4.36     13664.53   -358457.94   -358457.94    177018.53   -181439.41            0    235663.14    118571.78   0.86690162 
     437         4.37    13666.332   -358511.55   -358511.55    177041.87   -181469.68            0    235473.25    118574.17   0.86688416 
     438         4.38     13668.17   -358565.43   -358565.43    177065.69   -181499.74            0    235296.18    118576.56   0.86686666 
     439         4.39    13670.047   -358619.84   -358619.84       177090   -181529.84            0     235125.8    118578.96   0.86684912 
     440          4.4    13671.963   -358674.55   -358674.55    177114.82   -181559.73            0    234946.58    118581.36   0.86683155 
     441         4.41    13673.919      -358730      -358730    177140.16   -181589.83            0    234770.94    118583.77   0.86681393 
     442         4.42    13675.916   -358786.16   -358786.16    177166.03   -181620.13            0    234579.74    118586.19   0.86679628 
     443         4.43    13677.955   -358842.65   -358842.65    177192.44    -181650.2            0    234396.03    118588.61   0.86677858 
     444         4.44    13680.035   -358899.79   -358899.79    177219.39    -181680.4            0     234210.9    118591.03   0.86676085 
     445         4.45    13682.158   -358957.29   -358957.29    177246.89    -181710.4            0     234026.8    118593.47   0.86674308 
     446         4.46    13684.322   -359015.55   -359015.55    177274.92   -181740.63            0    233827.98     118595.9   0.86672527 
     447         4.47    13686.527   -359074.19   -359074.19     177303.5   -181770.69            0    233636.25    118598.34   0.86670743 
     448         4.48    13688.775   -359133.43   -359133.43    177332.61   -181800.82            0    233444.43    118600.79   0.86668954 
     449         4.49    13691.063   -359193.15   -359193.15    177362.25    -181830.9            0    233251.27    118603.24   0.86667162 
     450          4.5    13693.391   -359253.27   -359253.27    177392.41   -181860.87            0    233060.49     118605.7   0.86665365 
     451         4.51    13695.758   -359313.95   -359313.95    177423.07   -181890.88            0    232857.89    118608.17   0.86663565 
     452         4.52    13698.163   -359375.06   -359375.06    177454.22   -181920.84            0    232665.86    118610.64   0.86661761 
     453         4.53    13700.604   -359436.54   -359436.54    177485.85   -181950.69            0    232474.69    118613.11   0.86659954 
     454         4.54    13703.081    -359498.6    -359498.6    177517.93   -181980.67            0    232283.97    118615.59   0.86658142 
     455         4.55    13705.591   -359560.95   -359560.95    177550.45    -182010.5            0    232096.06    118618.07   0.86656326 
     456         4.56    13708.133   -359623.95   -359623.95    177583.39   -182040.56            0    231892.85    118620.56   0.86654507 
     457         4.57    13710.706   -359687.28   -359687.28    177616.72   -182070.56            0    231701.23    118623.06   0.86652684 
     458         4.58    13713.309   -359751.01   -359751.01    177650.43   -182100.57            0    231513.57    118625.56   0.86650857 
     459         4.59    13715.938   -359815.28   -359815.28     177684.5   -182130.78            0    231331.53    118628.07   0.86649027 
     460          4.6    13718.593   -359879.79   -359879.79    177718.89    -182160.9            0    231135.64    118630.58   0.86647192 
     461         4.61    13721.272   -359944.49   -359944.49     177753.6   -182190.89            0    230952.12     118633.1   0.86645354 
     462         4.62    13723.974   -360009.47   -360009.47     177788.6   -182220.87            0    230773.19    118635.62   0.86643512 
     463         4.63    13726.697   -360074.95   -360074.95    177823.88   -182251.07            0    230594.52    118638.15   0.86641666 
     464         4.64    13729.441   -360140.42   -360140.42    177859.42      -182281            0    230415.62    118640.68   0.86639816 
     465         4.65    13732.203   -360206.17   -360206.17    177895.21   -182310.97            0    230245.14    118643.22   0.86637963 
     466         4.66    13734.983   -360272.58   -360272.58    177931.21   -182341.37            0    230064.95    118645.76   0.86636106 
     467         4.67    13737.778    -360338.9    -360338.9    177967.42   -182371.48            0    229895.35    118648.31   0.86634245 
     468         4.68    13740.588   -360405.29   -360405.29    178003.83   -182401.46            0    229726.86    118650.86    0.8663238 
     469         4.69    13743.412   -360471.96   -360471.96    178040.41   -182431.55            0    229546.23    118653.42   0.86630512 
     470          4.7    13746.249    -360538.7    -360538.7    178077.16   -182461.54            0    229382.19    118655.99    0.8662864 
     471         4.71    13749.097   -360605.75   -360605.75    178114.06   -182491.69            0    229217.94    118658.55   0.86626764 
     472         4.72    13751.956   -360673.04   -360673.04     178151.1   -182521.94            0    229034.67    118661.13   0.86624884 
     473         4.73    13754.825   -360740.38   -360740.38    178188.26   -182552.12            0    228868.43    118663.71   0.86623001 
     474         4.74    13757.703   -360807.89   -360807.89    178225.54   -182582.35            0    228704.09    118666.29   0.86621113 
     475         4.75    13760.589   -360875.41   -360875.41    178262.93   -182612.49            0    228544.02    118668.89   0.86619223 
     476         4.76    13763.482   -360943.02   -360943.02    178300.41   -182642.61            0    228383.29    118671.48   0.86617328 
     477         4.77    13766.382   -361010.59   -361010.59    178337.98    -182672.6            0    228222.96    118674.08    0.8661543 
     478         4.78    13769.289    -361078.3    -361078.3    178375.64   -182702.67            0    228064.48    118676.69   0.86613528 
     479         4.79    13772.201   -361146.48   -361146.48    178413.36   -182733.12            0    227889.85     118679.3   0.86611622 
     480          4.8    13775.117   -361214.45   -361214.45    178451.14   -182763.31            0    227726.06    118681.92   0.86609713 
     481         4.81    13778.038   -361282.68   -361282.68    178488.98    -182793.7            0    227568.49    118684.54     0.866078 
     482         4.82    13780.963   -361350.78   -361350.78    178526.87    -182823.9            0     227411.4    118687.16   0.86605883 
     483         4.83    13783.892   -361418.96   -361418.96    178564.81   -182854.15            0    227257.35     118689.8   0.86603962 
     484         4.84    13786.823   -361487.28   -361487.28    178602.78    -182884.5            0    227100.65    118692.43   0.86602038 
     485         4.85    13789.756   -361555.56   -361555.56    178640.78   -182914.78            0    226944.35    118695.07    0.8660011 
     486         4.86    13792.692   -361623.92   -361623.92    178678.81    -182945.1            0    226788.55    118697.72   0.86598179 
     487         4.87    13795.629   -361692.47   -361692.47    178716.87    -182975.6            0    226622.42    118700.37   0.86596244 
     488         4.88    13798.568   -361760.81   -361760.81    178754.94   -183005.87            0     226467.2    118703.03   0.86594305 
     489         4.89    13801.509    -361829.2    -361829.2    178793.03   -183036.18            0    226311.64     118705.7   0.86592362 
     490          4.9    13804.449   -361897.86   -361897.86    178831.12   -183066.73            0    226156.64    118708.36   0.86590416 
     491         4.91     13807.39   -361966.31   -361966.31    178869.22   -183097.09            0    225996.43    118711.04   0.86588466 
     492         4.92    13810.331   -362034.97   -362034.97    178907.32   -183127.64            0    225826.86    118713.71   0.86586513 
     493         4.93    13813.273   -362103.72   -362103.72    178945.43   -183158.29            0    225645.91     118716.4   0.86584556 
     494         4.94    13816.214   -362172.49   -362172.49    178983.53   -183188.96            0    225486.87    118719.09   0.86582595 
     495         4.95    13819.155   -362241.14   -362241.14    179021.63   -183219.51            0    225331.09    118721.78   0.86580631 
     496         4.96    13822.095   -362309.79   -362309.79    179059.72   -183250.07            0    225175.85    118724.48   0.86578663 
     497         4.97    13825.036   -362378.48   -362378.48    179097.82   -183280.67            0    225021.02    118727.18   0.86576691 
     498         4.98    13827.976   -362447.26   -362447.26     179135.9   -183311.36            0    224866.79    118729.89   0.86574716 
     499         4.99    13830.915   -362515.91   -362515.91    179173.98   -183341.94            0    224712.21     118732.6   0.86572737 
     500            5    13833.853   -362584.69   -362584.69    179212.04   -183372.65            0    224558.48    118735.32   0.86570755 
     501         5.01     13836.79   -362653.54   -362653.54    179250.09   -183403.45            0    224405.79    118738.05   0.86568769 
     502         5.02    13839.726   -362722.34   -362722.34    179288.12   -183434.23            0    224252.17    118740.78   0.86566779 
     503         5.03     13842.66   -362791.15   -362791.15    179326.12   -183465.02            0     224099.3    118743.51   0.86564786 
     504         5.04    13845.592    -362859.9    -362859.9    179364.12   -183495.79            0    223947.25    118746.25   0.86562789 
     505         5.05    13848.524   -362928.72   -362928.72    179402.09   -183526.63            0    223795.33    118748.99   0.86560789 
     506         5.06    13851.453   -362997.53   -362997.53    179440.05   -183557.49            0    223639.06    118751.74   0.86558785 
     507         5.07    13854.382   -363066.24   -363066.24    179477.98   -183588.26            0    223487.78     118754.5   0.86556777 
     508         5.08    13857.308   -363135.05   -363135.05    179515.89   -183619.17            0    223335.69    118757.26   0.86554766 
     509         5.09    13860.232   -363203.78   -363203.78    179553.77   -183650.01            0    223180.63    118760.02   0.86552752 
     510          5.1    13863.154   -363272.61   -363272.61    179591.63   -183680.98            0    223027.74    118762.79   0.86550733 
     511         5.11    13866.074   -363341.57   -363341.57    179629.45   -183712.12            0    222867.24    118765.56   0.86548712 
     512         5.12    13868.992   -363410.42   -363410.42    179667.25   -183743.17            0    222714.05    118768.34   0.86546686 
     513         5.13    13871.907   -363479.22   -363479.22    179705.02    -183774.2            0    222561.73    118771.13   0.86544657 
     514         5.14     13874.82   -363548.14   -363548.14    179742.75   -183805.39            0    222399.47    118773.92   0.86542625 
     515         5.15     13877.73   -363617.27   -363617.27    179780.44   -183836.82            0    222232.26    118776.71   0.86540589 
     516         5.16    13880.637   -363686.16   -363686.16     179818.1   -183868.05            0     222074.9    118779.51    0.8653855 
     517         5.17    13883.541   -363755.03   -363755.03    179855.73   -183899.31            0    221907.47    118782.31   0.86536507 
     518         5.18    13886.443   -363823.82   -363823.82    179893.32   -183930.51            0    221754.97    118785.12    0.8653446 
     519         5.19    13889.342   -363892.66   -363892.66    179930.87   -183961.79            0    221603.12    118787.94    0.8653241 
     520          5.2    13892.238    -363961.4    -363961.4     179968.4   -183993.01            0    221450.99    118790.76   0.86530357 
     521         5.21    13895.132   -364030.28   -364030.28    180005.89   -184024.39            0     221284.2    118793.58     0.865283 
     522         5.22    13898.023   -364099.28   -364099.28    180043.34   -184055.94            0    221131.92    118796.41   0.86526239 
     523         5.23    13900.912   -364167.94   -364167.94    180080.76   -184087.18            0    220978.32    118799.24   0.86524175 
     524         5.24    13903.797   -364236.71   -364236.71    180118.14   -184118.57            0    220825.76    118802.08   0.86522108 
     525         5.25     13906.68   -364305.84   -364305.84    180155.48   -184150.36            0    220658.98    118804.93   0.86520037 
     526         5.26     13909.56   -364374.68   -364374.68    180192.79   -184181.89            0    220504.77    118807.77   0.86517962 
     527         5.27    13912.436   -364443.74   -364443.74    180230.05   -184213.69            0     220340.2    118810.63   0.86515884 
     528         5.28     13915.31   -364512.55   -364512.55    180267.28   -184245.27            0     220185.8    118813.49   0.86513803 
     529         5.29    13918.181   -364581.55   -364581.55    180304.47   -184277.08            0    219999.64    118816.35   0.86511718 
     530          5.3    13921.048   -364650.31   -364650.31    180341.61    -184308.7            0    219840.84    118819.22    0.8650963 
     531         5.31    13923.911   -364719.04   -364719.04    180378.71   -184340.33            0    219683.47    118822.09   0.86507538 
     532         5.32    13926.771   -364787.71   -364787.71    180415.75   -184371.96            0    219524.22    118824.97   0.86505443 
     533         5.33    13929.627   -364856.48   -364856.48    180452.75   -184403.73            0    219364.57    118827.85   0.86503344 
     534         5.34    13932.479   -364925.29   -364925.29    180489.69   -184435.59            0     219207.4    118830.74   0.86501242 
     535         5.35    13935.326   -364994.03   -364994.03    180526.59   -184467.45            0    219049.98    118833.63   0.86499137 
     536         5.36    13938.169   -365062.75   -365062.75    180563.42   -184499.33            0    218890.42    118836.53   0.86497028 
     537         5.37    13941.007   -365131.61   -365131.61    180600.17   -184531.43            0     218706.3    118839.43   0.86494916 
     538         5.38    13943.838   -365200.34   -365200.34    180636.85   -184563.49            0    218531.16    118842.34     0.864928 
     539         5.39    13946.664   -365268.92   -365268.92    180673.46   -184595.46            0    218365.57    118845.25   0.86490681 
     540          5.4    13949.483   -365337.64   -365337.64    180709.98   -184627.66            0    218198.59    118848.17   0.86488558 
     541         5.41    13952.294   -365406.26   -365406.26    180746.39   -184659.87            0    218022.34    118851.09   0.86486432 
     542         5.42    13955.096   -365474.66   -365474.66     180782.7   -184691.96            0    217845.94    118854.01   0.86484303 
     543         5.43    13957.889   -365543.14   -365543.14    180818.88   -184724.26            0    217667.25    118856.95    0.8648217 
     544         5.44    13960.673   -365611.35   -365611.35    180854.93   -184756.42            0    217484.16    118859.88   0.86480034 
     545         5.45    13963.446   -365679.61   -365679.61    180890.87   -184788.74            0    217300.03    118862.82   0.86477894 
     546         5.46    13966.212   -365748.09   -365748.09     180926.7   -184821.39            0    217089.75    118865.77   0.86475752 
     547         5.47    13968.973   -365816.18   -365816.18    180962.47   -184853.71            0    216906.68    118868.72   0.86473605 
     548         5.48    13971.734   -365884.61   -365884.61    180998.23   -184886.39            0    216699.29    118871.67   0.86471456 
     549         5.49    13974.496   -365953.15   -365953.15    181034.01   -184919.13            0    216493.63    118874.63   0.86469303 
     550          5.5    13977.263   -366021.58   -366021.58    181069.86   -184951.73            0    216281.76     118877.6   0.86467147 
     551         5.51    13980.035   -366089.92   -366089.92    181105.77   -184984.15            0    216098.78    118880.57   0.86464987 
     552         5.52    13982.811   -366158.59   -366158.59    181141.73   -185016.86            0    215912.66    118883.54   0.86462824 
     553         5.53     13985.59   -366227.08   -366227.08    181177.74   -185049.35            0    215728.89    118886.52   0.86460658 
     554         5.54    13988.371   -366295.91   -366295.91    181213.76   -185082.16            0    215527.62     118889.5   0.86458488 
     555         5.55    13991.151   -366364.51   -366364.51    181249.77   -185114.73            0    215337.08    118892.49   0.86456315 
     556         5.56    13993.929   -366433.46   -366433.46    181285.77    -185147.7            0    215121.43    118895.48   0.86454139 
     557         5.57    13996.705   -366502.26   -366502.26    181321.73   -185180.54            0    214926.26    118898.48    0.8645196 
     558         5.58    13999.479   -366571.34   -366571.34    181357.65   -185213.68            0    214703.15    118901.48   0.86449777 
     559         5.59     14002.25   -366640.12   -366640.12    181393.55   -185246.57            0    214503.85    118904.49   0.86447591 
[...]
    6313        63.13     5519.501   -416666.73   -416666.73    71502.931    -345163.8            0    13903.151    131037.06   0.78443507 
    6314        63.14    5518.7277   -416671.01   -416671.01    71492.912   -345178.09            0     13894.89    131038.27    0.7844278 
    6315        63.15    5517.9546    -416675.2    -416675.2    71482.898    -345192.3            0    13840.061    131039.49   0.78442053 
    6316        63.16     5517.183    -416679.6    -416679.6    71472.902    -345206.7            0    13789.996     131040.7   0.78441326 
    6317        63.17    5516.4133   -416684.08   -416684.08     71462.93   -345221.15            0    13765.482    131041.92     0.784406 
    6318        63.18    5515.6461   -416688.58   -416688.58    71452.991   -345235.59            0    13732.871    131043.13   0.78439873 
    6319        63.19    5514.8825   -416692.91   -416692.91      71443.1   -345249.82            0    13698.088    131044.34   0.78439147 
    6320         63.2    5514.1231   -416697.31   -416697.31    71433.261   -345264.05            0    13648.721    131045.56   0.78438421 
    6321        63.21    5513.3677   -416701.84   -416701.84    71423.475   -345278.37            0    13625.281    131046.77   0.78437696 
    6322        63.22    5512.6163   -416706.49   -416706.49    71413.741   -345292.75            0    13608.047    131047.98   0.78436971 
    6323        63.23    5511.8688   -416711.21   -416711.21    71404.059   -345307.15            0    13560.167    131049.19   0.78436246 
    6324        63.24    5511.1259   -416716.19   -416716.19    71394.434   -345321.76            0    13517.783     131050.4   0.78435521 
    6325        63.25    5510.3868   -416720.85   -416720.85    71384.859   -345335.99            0    13517.087    131051.61   0.78434797 
    6326        63.26    5509.6507   -416725.71   -416725.71    71375.324   -345350.38            0    13525.505    131052.82   0.78434072 
    6327        63.27    5508.9192   -416730.33   -416730.33    71365.847   -345364.48            0    13548.559    131054.03   0.78433349 
    6328        63.28    5508.1928   -416735.09   -416735.09    71356.437   -345378.65            0    13551.725    131055.24   0.78432625 
    6329        63.29    5507.4717   -416740.01   -416740.01    71347.095   -345392.92            0    13552.186    131056.45   0.78431902 
    6330         63.3    5506.7561   -416745.18   -416745.18    71337.825   -345407.36            0    13549.687    131057.66   0.78431178 
    6331        63.31    5506.0459   -416750.27   -416750.27    71328.624   -345421.64            0    13563.183    131058.87   0.78430456 
    6332        63.32    5505.3405   -416755.56   -416755.56    71319.487   -345436.07            0    13563.791    131060.07   0.78429733 
    6333        63.33    5504.6402   -416760.67   -416760.67    71310.414   -345450.25            0    13575.341    131061.28   0.78429011 
    6334        63.34    5503.9446   -416765.73   -416765.73    71301.404   -345464.33            0    13610.329    131062.49   0.78428289 
    6335        63.35     5503.253   -416771.31   -416771.31    71292.444   -345478.86            0    13626.961    131063.69   0.78427567 
    6336        63.36    5502.5654   -416776.69   -416776.69    71283.536   -345493.15            0    13641.398     131064.9   0.78426845 
    6337        63.37    5501.8832   -416782.29   -416782.29    71274.698   -345507.59            0    13663.302     131066.1   0.78426124 
    6338        63.38     5501.207   -416788.15   -416788.15    71265.939   -345522.21            0    13630.442    131067.31   0.78425403 
    6339        63.39    5500.5366   -416793.87   -416793.87    71257.254   -345536.62            0    13643.503    131068.51   0.78424682 
    6340         63.4    5499.8718   -416799.62   -416799.62    71248.642   -345550.98            0    13673.955    131069.72   0.78423962 
    6341        63.41    5499.2122   -416805.63   -416805.63    71240.098   -345565.53            0    13658.541    131070.92   0.78423242 
    6342        63.42    5498.5575   -416812.06   -416812.06    71231.616   -345580.44            0    13667.841    131072.13   0.78422522 
    6343        63.43    5497.9065   -416818.25   -416818.25    71223.183   -345595.07            0    13610.333    131073.33   0.78421802 
    6344        63.44    5497.2595   -416824.22   -416824.22    71214.801   -345609.42            0    13611.275    131074.53   0.78421083 
    6345        63.45    5496.6174   -416829.83   -416829.83    71206.483   -345623.35            0    13625.042    131075.73   0.78420363 
    6346        63.46    5495.9802   -416835.94   -416835.94    71198.227   -345637.71            0    13632.923    131076.93   0.78419644 
    6347        63.47    5495.3477    -416841.9    -416841.9    71190.034   -345651.86            0    13660.866    131078.14   0.78418926 
    6348        63.48      5494.72   -416848.21   -416848.21    71181.902   -345666.31            0    13674.668    131079.34   0.78418207 
    6349        63.49    5494.0971   -416854.56   -416854.56    71173.833   -345680.73            0    13675.966    131080.54   0.78417489 
    6350         63.5     5493.479   -416860.72   -416860.72    71165.826    -345694.9            0    13695.327    131081.74   0.78416771 
    6351        63.51    5492.8652   -416867.18   -416867.18    71157.874   -345709.31            0    13730.284    131082.94   0.78416054 
    6352        63.52    5492.2552   -416873.62   -416873.62    71149.972   -345723.65            0    13738.997    131084.14   0.78415336 
    6353        63.53    5491.6489   -416880.01   -416880.01    71142.117   -345737.89            0    13746.432    131085.33   0.78414619 
    6354        63.54    5491.0461   -416886.47   -416886.47    71134.308   -345752.16            0    13749.647    131086.53   0.78413902 
    6355        63.55    5490.4476   -416892.79   -416892.79    71126.556   -345766.23            0    13775.104    131087.73   0.78413186 
    6356        63.56    5489.8536   -416899.34   -416899.34     71118.86   -345780.48            0    13728.727    131088.93    0.7841247 
    6357        63.57    5489.2637   -416905.93   -416905.93    71111.218   -345794.71            0    13752.054    131090.13   0.78411753 
    6358        63.58     5488.677   -416912.51   -416912.51    71103.618   -345808.89            0    13779.472    131091.32   0.78411038 
    6359        63.59    5488.0949   -416919.67   -416919.67    71096.077   -345823.59            0    13717.116    131092.52   0.78410322 
    6360         63.6    5487.5185   -416926.16   -416926.16     71088.61   -345837.55            0    13699.074    131093.71   0.78409607 
    6361        63.61    5486.9482   -416933.23   -416933.23    71081.222   -345852.01            0     13640.46    131094.91   0.78408892 
    6362        63.62    5486.3846   -416939.95   -416939.95     71073.92   -345866.02            0    13644.683     131096.1   0.78408177 
    6363        63.63    5485.8271   -416947.11   -416947.11    71066.698   -345880.41            0    13625.075     131097.3   0.78407462 
    6364        63.64    5485.2762   -416954.15   -416954.15    71059.561   -345894.59            0    13626.885    131098.49   0.78406748 
    6365        63.65    5484.7329   -416961.39   -416961.39    71052.524   -345908.86            0    13599.343    131099.69   0.78406034 
    6366        63.66    5484.1983   -416968.68   -416968.68    71045.598   -345923.09            0    13580.428    131100.88    0.7840532 
    6367        63.67    5483.6859   -416976.08   -416976.08     71038.96   -345937.12            0      13371.7    131102.07   0.78404607 
    6368        63.68     5483.198   -416984.15   -416984.15    71032.639   -345951.51            0    13342.519    131103.27   0.78403893 
    6369        63.69    5482.7206   -416992.24   -416992.24    71026.455   -345965.79            0    13358.274    131104.46    0.7840318 
    6370         63.7    5482.2532   -417000.47   -417000.47      71020.4   -345980.07            0    13351.387    131105.65   0.78402468 
    6371        63.71    5481.7956   -417008.69   -417008.69    71014.472   -345994.22            0    13354.423    131106.84   0.78401755 
    6372        63.72    5481.3462   -417017.12   -417017.12     71008.65   -346008.47            0    13350.638    131108.03   0.78401043 
    6373        63.73    5480.9026    -417025.6    -417025.6    71002.903   -346022.69            0    13380.135    131109.22   0.78400331 
    6374        63.74    5480.4631   -417033.85   -417033.85    70997.209   -346036.64            0     13409.94    131110.41   0.78399619 
    6375        63.75    5480.0257   -417042.56   -417042.56    70991.544   -346051.01            0    13380.324     131111.6   0.78398908 
    6376        63.76    5479.5885   -417051.01   -417051.01     70985.88   -346065.13            0    13419.969    131112.79   0.78398197 
    6377        63.77    5479.1509   -417059.64   -417059.64    70980.211   -346079.43            0    13446.076    131113.98   0.78397486 
    6378        63.78    5478.7124   -417067.99   -417067.99     70974.53   -346093.46            0    13495.474    131115.17   0.78396775 
    6379        63.79    5478.2721   -417076.47   -417076.47    70968.827   -346107.64            0    13503.687    131116.36   0.78396065 
    6380         63.8    5477.8298   -417085.27   -417085.27    70963.097   -346122.17            0    13500.112    131117.55   0.78395354 
    6381        63.81    5477.3864   -417094.02   -417094.02    70957.352   -346136.66            0    13505.426    131118.73   0.78394645 
    6382        63.82    5476.9436   -417102.69   -417102.69    70951.616   -346151.07            0    13540.409    131119.92   0.78393935 
    6383        63.83    5476.5017    -417111.2    -417111.2    70945.891   -346165.31            0    13537.076    131121.11   0.78393226 
    6384        63.84    5476.0606   -417119.58   -417119.58    70940.178    -346179.4            0    13549.014    131122.29   0.78392516 
    6385        63.85    5475.6221   -417128.19   -417128.19    70934.497   -346193.69            0    13515.318    131123.48   0.78391807 
    6386        63.86    5475.1862   -417136.88   -417136.88     70928.85   -346208.03            0    13502.896    131124.67   0.78391099 
    6387        63.87    5474.7527   -417145.33   -417145.33    70923.234    -346222.1            0    13518.704    131125.85    0.7839039 
    6388        63.88    5474.3229    -417154.1    -417154.1    70917.666   -346236.43            0    13524.994    131127.03   0.78389682 
    6389        63.89    5473.8983   -417162.54   -417162.54    70912.165   -346250.38            0    13498.562    131128.22   0.78388974 
    6390         63.9      5473.48   -417171.51   -417171.51    70906.747   -346264.76            0    13456.533     131129.4   0.78388267 
    6391        63.91    5473.0688   -417180.36   -417180.36    70901.419   -346278.94            0    13428.383    131130.59   0.78387559 
    6392        63.92    5472.6656   -417189.29   -417189.29    70896.196    -346293.1            0    13402.891    131131.77   0.78386852 
    6393        63.93    5472.2709   -417198.09   -417198.09    70891.083   -346307.01            0    13378.501    131132.95   0.78386145 
    6394        63.94    5471.8839   -417207.07   -417207.07     70886.07      -346321            0    13364.878    131134.13   0.78385439 
    6395        63.95    5471.5054   -417216.51   -417216.51    70881.166   -346335.34            0    13317.502    131135.31   0.78384732 
    6396        63.96    5471.1381   -417226.18   -417226.18    70876.409   -346349.77            0    13247.906     131136.5   0.78384026 
    6397        63.97    5470.7836   -417235.73   -417235.73    70871.816   -346363.91            0    13210.048    131137.68   0.78383321 
    6398        63.98    5470.4421   -417245.68   -417245.68    70867.392   -346378.29            0    13125.035    131138.86   0.78382615 
    6399        63.99    5470.1141   -417255.48   -417255.48    70863.143   -346392.34            0    13088.639    131140.04    0.7838191 
    6400           64    5469.8002   -417265.56   -417265.56    70859.076   -346406.48            0    13064.567    131141.22   0.78381205 
    6401        64.01    5469.5007    -417275.9    -417275.9    70855.196    -346420.7            0    12997.441     131142.4     0.783805 
    6402        64.02    5469.2146   -417286.32   -417286.32     70851.49   -346434.83            0    12948.204    131143.58   0.78379795 
    6403        64.03     5468.945   -417296.91   -417296.91    70847.997   -346448.91            0    12828.176    131144.75   0.78379091 
    6404        64.04    5468.6892   -417307.63   -417307.63    70844.683   -346462.95            0    12843.946    131145.93   0.78378387 
    6405        64.05    5468.4406   -417318.47   -417318.47    70841.463   -346477.01            0    12872.153    131147.11   0.78377683 
    6406        64.06    5468.1967   -417329.46   -417329.46    70838.304   -346491.16            0    12872.371    131148.29    0.7837698 
    6407        64.07    5467.9538   -417340.35   -417340.35    70835.157   -346505.19            0    12915.008    131149.46   0.78376276 
    6408        64.08    5467.7108   -417351.43   -417351.43    70832.009   -346519.42            0    12952.378    131150.64   0.78375573 
    6409        64.09    5467.4678    -417362.3    -417362.3     70828.86   -346533.44            0    13003.544    131151.82   0.78374871 
    6410         64.1     5467.223   -417373.33   -417373.33     70825.69   -346547.64            0    13052.146    131152.99   0.78374168 
    6411        64.11    5466.9736   -417384.13   -417384.13    70822.459   -346561.67            0     13131.36    131154.17   0.78373466 
    6412        64.12    5466.7201   -417395.02   -417395.02    70819.175   -346575.85            0    13179.435    131155.34   0.78372764 
    6413        64.13    5466.4645   -417405.61   -417405.61    70815.864   -346589.75            0    13248.952    131156.52   0.78372062 
    6414        64.14    5466.2044    -417416.1    -417416.1    70812.495   -346603.61            0    13349.581    131157.69   0.78371361 
    6415        64.15    5465.9404   -417427.02   -417427.02    70809.074   -346617.94            0    13390.617    131158.86    0.7837066 
    6416        64.16    5465.6733   -417437.77   -417437.77    70805.613   -346632.15            0    13445.671    131160.04   0.78369959 
    6417        64.17    5465.4025   -417448.47   -417448.47    70802.106   -346646.36            0    13504.859    131161.21   0.78369258 
    6418        64.18    5465.1293      -417459      -417459    70798.566   -346660.44            0    13547.037    131162.38   0.78368557 
    6419        64.19    5464.8532   -417469.68   -417469.68     70794.99   -346674.69            0      13594.7    131163.55   0.78367857 
    6420         64.2    5464.5749   -417480.23   -417480.23    70791.385   -346688.84            0    13613.131    131164.72   0.78367157 
    6421        64.21    5464.2945    -417490.6    -417490.6    70787.753   -346702.85            0    13646.976     131165.9   0.78366457 
    6422        64.22    5464.0135   -417501.04   -417501.04    70784.112   -346716.92            0    13648.177    131167.07   0.78365758 
    6423        64.23    5463.7343   -417511.36   -417511.36    70780.495   -346730.87            0    13658.503    131168.24   0.78365059 
    6424        64.24    5463.4572   -417521.54   -417521.54    70776.905   -346744.64            0    13655.485    131169.41    0.7836436 
    6425        64.25    5463.1827   -417532.18   -417532.18    70773.349   -346758.83            0     13628.01    131170.58   0.78363661 
    6426        64.26    5462.9105   -417542.81   -417542.81    70769.823   -346772.99            0     13596.86    131171.75   0.78362962 
    6427        64.27     5462.641   -417553.49   -417553.49    70766.331   -346787.16            0    13587.414    131172.91   0.78362264 
    6428        64.28    5462.3734   -417563.93   -417563.93    70762.866   -346801.06            0    13541.234    131174.08   0.78361566 
    6429        64.29     5462.108   -417574.74   -417574.74    70759.427   -346815.32            0    13517.945    131175.25   0.78360868 
    6430         64.3    5461.8454   -417585.47   -417585.47    70756.025   -346829.44            0     13506.83    131176.42   0.78360171 
    6431        64.31    5461.5856   -417596.16   -417596.16     70752.66    -346843.5            0    13474.684    131177.59   0.78359474 
    6432        64.32    5461.3281   -417606.81   -417606.81    70749.324   -346857.48            0    13454.173    131178.75   0.78358777 
    6433        64.33    5461.0708   -417617.67   -417617.67     70745.99   -346871.68            0    13426.104    131179.92    0.7835808 
    6434        64.34    5460.8116   -417628.63   -417628.63    70742.633   -346885.99            0    13344.224    131181.09   0.78357383 
    6435        64.35     5460.551   -417639.62   -417639.62    70739.256   -346900.37            0    13351.314    131182.25   0.78356687 
    6436        64.36    5460.2889   -417650.41   -417650.41    70735.861   -346914.55            0    13293.012    131183.42   0.78355991 
    6437        64.37    5460.0257   -417660.83   -417660.83    70732.451   -346928.38            0    13288.395    131184.58   0.78355295 
    6438        64.38    5459.7607   -417671.54   -417671.54    70729.019   -346942.52            0    13243.242    131185.75   0.78354599 
    6439        64.39    5459.4933   -417682.32   -417682.32    70725.555   -346956.77            0    13195.966    131186.91   0.78353904 
    6440         64.4    5459.2234   -417693.06   -417693.06    70722.059      -346971            0    13145.533    131188.07   0.78353209 
    6441        64.41    5458.9499    -417703.7    -417703.7    70718.515   -346985.18            0    13109.812    131189.24   0.78352514 
    6442        64.42    5458.6717   -417714.28   -417714.28    70714.911   -346999.37            0    13069.833     131190.4    0.7835182 
    6443        64.43    5458.3866   -417724.48   -417724.48    70711.218   -347013.27            0    13065.183    131191.56   0.78351125 
    6444        64.44    5458.0942   -417734.65   -417734.65    70707.429   -347027.22            0    13021.163    131192.72   0.78350431 
    6445        64.45    5457.7942   -417745.07   -417745.07    70703.544   -347041.53            0    13001.011    131193.89   0.78349737 
    6446        64.46    5457.4873   -417755.27   -417755.27    70699.567    -347055.7            0    12964.347    131195.05   0.78349044 
    6447        64.47    5457.1728   -417765.15   -417765.15    70695.493   -347069.66            0    12883.286    131196.21   0.78348351 
    6448        64.48    5456.8503   -417775.17   -417775.17    70691.316   -347083.85            0    12795.086    131197.37   0.78347657 
    6449        64.49    5456.5217    -417784.7    -417784.7    70687.058   -347097.64            0    12762.204    131198.53   0.78346965 
    6450         64.5    5456.1866   -417794.65   -417794.65    70682.717   -347111.93            0    12708.442    131199.69   0.78346272 
    6451        64.51    5455.8456   -417804.43   -417804.43      70678.3   -347126.13            0    12633.963    131200.85    0.7834558 
    6452        64.52    5455.4995   -417814.04   -417814.04    70673.817   -347140.22            0    12526.299    131202.01   0.78344888 
    6453        64.53    5455.1519   -417823.66   -417823.66    70669.313   -347154.35            0    12547.559    131203.17   0.78344196 
    6454        64.54    5454.8033   -417833.36   -417833.36    70664.798   -347168.56            0    12441.262    131204.32   0.78343504 
    6455        64.55    5454.4497    -417842.