LAMMPS (19 Sep 2019)
OMP_NUM_THREADS environment is not set. Defaulting to 1 thread. (../comm.cpp:93)
  using 1 OpenMP thread(s) per MPI task
Reading data file ...
  orthogonal box = (-6.37931 -4.19611 -10.7845) to (6.5753 4.22201 10.6816)
  1 by 1 by 1 MPI processor grid
  reading atoms ...
  161 atoms
  read_data CPU = 0.0345914 secs
Replicating atoms ...
  orthogonal box = (-6.37931 -4.19611 -10.7845) to (32.4845 21.0582 53.6137)
  1 by 1 by 1 MPI processor grid
  4347 atoms
  replicate CPU = 0.000288 secs
Reading potential file ffield.reax.FC with DATE: 2013-06-28
WARNING: Changed valency_val to valency_boc for X (../reaxc_ffield.cpp:315)
Neighbor list info ...
  update every 10 steps, delay 0 steps, check no
  max neighbors/atom: 2000, page size: 100000
  master list distance cutoff = 12
  ghost atom cutoff = 12
  binsize = 6, bins = 7 5 11
  2 neighbor lists, perpetual/occasional/extra = 2 0 0
  (1) pair reax/c, perpetual
      attributes: half, newton off, ghost
      pair build: half/bin/newtoff/ghost
      stencil: half/ghost/bin/3d/newtoff
      bin: standard
  (2) fix qeq/reax, perpetual, copy from (1)
      attributes: half, newton off, ghost
      pair build: copy
      stencil: none
      bin: none
Setting up Verlet run ...
  Unit style    : real
  Current step  : 0
  Time step     : 0.01
Per MPI rank memory allocation (min/avg/max) = 526.7 | 526.7 | 526.7 Mbytes
Step Time Temp E_pair PotEng KinEng TotEng E_bond Press Volume Density 
       0            0          300    5373839.2    5373839.2    3886.3801    5377725.6            0    2730470.3    63205.652    1.6262797 
       1         0.01     323.4134    5373535.4    5373535.4    4189.6914    5377725.1            0    2730688.4    63205.661    1.6262794 
       2         0.02     396.4338    5372588.1    5372588.1    5135.6415    5377723.7            0    2731380.4    63205.689    1.6262787 
       3         0.03      519.028    5370997.8    5370997.8    6723.8003    5377721.6            0    2732546.6    63205.735    1.6262775 
       4         0.04    691.14043    5368765.3    5368765.3    8953.4481    5377718.8            0    2734188.2    63205.799    1.6262759 
       5         0.05    912.69318    5365891.7    5365891.7    11823.575    5377715.3            0    2736305.1    63205.882    1.6262737 
       6         0.06     1183.586    5362378.1    5362378.1    15332.883      5377711            0    2738892.2    63205.984    1.6262711 
       7         0.07    1503.6962    5358226.2    5358226.2    19479.784      5377706            0    2741949.4    63206.103     1.626268 
       8         0.08    1872.8792    5353437.8    5353437.8    24262.401    5377700.3            0    2745476.2    63206.242    1.6262645 
       9         0.09    2290.9677    5348015.1    5348015.1    29678.571    5377693.7            0    2749466.9    63206.398    1.6262604 
      10          0.1    2757.7725    5341960.5    5341960.5    35725.841    5377686.3            0    2753920.3    63206.574    1.6262559 
      11         0.11    3273.0825    5335276.8    5335276.8    42401.476    5377678.3            0    2758834.3    63206.768    1.6262509 
      12         0.12    3836.6642    5327966.9    5327966.9    49702.452    5377669.3            0    2764203.7     63206.98    1.6262455 
      13         0.13    4448.2625    5320034.2    5320034.2    57625.464    5377659.7            0    2770026.3    63207.211    1.6262395 
      14         0.14    5107.6004    5311482.3    5311482.3    66166.923    5377649.2            0    2776297.9    63207.461    1.6262331 
      15         0.15    5814.3791    5302314.9    5302314.9    75322.958    5377637.8            0    2783011.7     63207.73    1.6262262 
      16         0.16    6568.2784    5292536.1    5292536.1    85089.422    5377625.5            0    2790166.2    63208.017    1.6262188 
      17         0.17    7368.9565    5282150.4    5282150.4    95461.887    5377612.3            0    2797754.5    63208.323    1.6262109 
      18         0.18    8216.0505    5271162.6    5271162.6    106435.65    5377598.3            0    2805773.2    63208.648    1.6262026 
      19         0.19    9109.1764    5259577.6    5259577.6    118005.74    5377583.4            0    2814215.8    63208.992    1.6261937 
      20          0.2    10047.929    5247400.6    5247400.6    130166.91    5377567.5            0      2823078    63209.355    1.6261844 
      21         0.21    11031.884      5234637      5234637    142913.65    5377550.7            0    2832350.8    63209.737    1.6261745 
      22         0.22    12060.593    5221292.5    5221292.5    156240.17    5377532.7            0    2842029.9    63210.138    1.6261642 
      23         0.23    13133.592    5207373.2    5207373.2    170140.44    5377513.6            0    2852107.9    63210.559    1.6261534 
      24         0.24    14250.394    5192885.3    5192885.3    184608.16    5377493.5            0      2862580    63210.998    1.6261421 
      25         0.25    15410.492    5177835.5    5177835.5    199636.77    5377472.2            0    2873438.9    63211.457    1.6261303 
      26         0.26    16613.363    5162230.3    5162230.3    215219.48    5377449.7            0      2884672    63211.935     1.626118 
      27         0.27    17858.461    5146076.4    5146076.4    231349.22    5377425.7            0    2896276.5    63212.433    1.6261052 
      28         0.28    19145.223    5129381.8    5129381.8    248018.72    5377400.5            0    2908244.1     63212.95    1.6260919 
      29         0.29    20473.069    5112153.5    5112153.5    265220.43    5377373.9            0    2920565.5    63213.487    1.6260781 
      30          0.3      21841.4    5094399.1    5094399.1    282946.61    5377345.7            0    2933233.4    63214.043    1.6260638 
      31         0.31    23249.598    5076126.7    5076126.7    301189.26      5377316            0    2946240.2     63214.62    1.6260489 
      32         0.32    24697.031    5057344.3    5057344.3    319940.17    5377284.5            0    2959575.7    63215.216    1.6260336 
      33         0.33    26183.047    5038060.2    5038060.2    339190.91    5377251.2            0    2973233.4    63215.832    1.6260178 
      34         0.34    27706.981    5018283.3    5018283.3    358932.86    5377216.1            0    2987199.3    63216.468    1.6260014 
      35         0.35    29268.149    4998021.7    4998021.7    379157.18    5377178.9            0    3001468.1    63217.124    1.6259845 
      36         0.36    30865.857    4977284.5    4977284.5    399854.84    5377139.4            0    3016029.1    63217.801    1.6259671 
      37         0.37     32499.39    4956080.7    4956080.7    421016.61    5377097.3            0    3030875.8    63218.498    1.6259492 
      38         0.38    34168.024    4934419.7    4934419.7     442633.1    5377052.8            0    3045997.7    63219.215    1.6259307 
      39         0.39    35871.019    4912310.6    4912310.6    464694.73    5377005.3            0    3061380.1    63219.953    1.6259118 
      40          0.4    37607.624    4889763.5    4889763.5    487191.74    5376955.2            0    3077016.8    63220.712    1.6258923 
      41         0.41    39377.073    4866787.8    4866787.8    510114.25    5376902.1            0    3092897.3    63221.491    1.6258722 
      42         0.42    41178.591    4843393.7    4843393.7    533452.19    5376845.9            0    3109011.7    63222.292    1.6258516 
      43         0.43     43011.39    4819590.5    4819590.5    557195.37    5376785.8            0    3125350.9    63223.113    1.6258305 
      44         0.44    44874.673    4795388.5    4795388.5    581333.46      5376722            0    3141903.8    63223.955    1.6258088 
      45         0.45    46767.632    4770798.8    4770798.8    605855.99    5376654.7            0    3158658.4    63224.819    1.6257866 
      46         0.46    48689.452    4745830.1    4745830.1    630752.39    5376582.5            0    3175605.7    63225.704    1.6257639 
      47         0.47    50639.307      4720494      4720494    656011.99      5376506            0    3192740.4     63226.61    1.6257406 
      48         0.48    52616.364    4694800.2    4694800.2    681623.98    5376424.2            0    3210040.9    63227.538    1.6257167 
      49         0.49    54619.785    4668759.7    4668759.7     707577.5    5376337.2            0    3227503.5    63228.487    1.6256923 
      50          0.5    56648.724    4642383.3    4642383.3    733861.58    5376244.9            0    3245117.1    63229.459    1.6256673 
      51         0.51    58702.327    4615681.6    4615681.6     760465.2    5376146.8            0    3262868.9    63230.452    1.6256418 
      52         0.52     60779.74    4588665.2    4588665.2    787377.25    5376042.5            0      3280751    63231.467    1.6256157 
      53         0.53    62880.101    4561345.1    4561345.1    814586.59    5375931.7            0    3298752.7    63232.505     1.625589 
      54         0.54    65002.546    4533732.2    4533732.2    842082.01    5375814.2            0      3316867    63233.564    1.6255618 
      55         0.55    67146.207    4505837.1    4505837.1    869852.29    5375689.4            0    3335077.9    63234.646     1.625534 
      56         0.56    69310.215    4477670.7    4477670.7    897886.15    5375556.9            0    3353377.2    63235.751    1.6255056 
      57         0.57    71493.699    4449244.1    4449244.1    926172.31    5375416.4            0    3371754.5    63236.878    1.6254766 
      58         0.58    73695.787    4420568.1    4420568.1    954699.48    5375267.5            0    3390201.8    63238.028     1.625447 
      59         0.59    75915.607    4391653.3    4391653.3    983456.35    5375109.7            0      3408702    63239.201    1.6254169 
      60          0.6    78152.286    4362510.8    4362510.8    1012431.6    5374942.4            0    3427250.5    63240.397    1.6253862 
      61         0.61    80404.956    4333151.1    4333151.1    1041614.1    5374765.2            0    3445836.3    63241.616    1.6253548 
      62         0.62    82672.746    4303585.2    4303585.2    1070992.4    5374577.6            0      3464450    63242.858    1.6253229 
      63         0.63    84954.791    4273823.9    4273823.9    1100555.4    5374379.3            0    3483082.8    63244.124    1.6252904 
      64         0.64    87250.227    4243877.6    4243877.6    1130291.8    5374169.5            0    3501721.3    63245.413    1.6252572 
      65         0.65    89558.195      4213757      4213757    1160190.6    5373947.7            0    3520358.6    63246.726    1.6252235 
      66         0.66     91877.84    4183472.8    4183472.8    1190240.7    5373713.6            0    3538987.3    63248.063    1.6251891 
      67         0.67    94208.311    4153035.1    4153035.1      1220431    5373466.1            0    3557590.8    63249.424    1.6251542 
      68         0.68    96548.763    4122454.6    4122454.6    1250750.7    5373205.3            0    3576168.3    63250.808    1.6251186 
      69         0.69    98898.357    4091741.3    4091741.3    1281188.7      5372930            0    3594704.8    63252.217    1.6250824 
      70          0.7    101256.26    4060905.7    4060905.7    1311734.4    5372640.1            0    3613199.3     63253.65    1.6250456 
      71         0.71    103621.65    4029957.6    4029957.6      1342377    5372334.7            0    3631634.8    63255.108    1.6250081 
      72         0.72     105993.7    3998907.3    3998907.3    1373106.1    5372013.3            0    3650008.6     63256.59    1.6249701 
      73         0.73    108371.61    3967764.2    3967764.2    1403910.9    5371675.2            0    3668307.7    63258.097    1.6249314 
      74         0.74    110754.58    3936538.4    3936538.4    1434781.3    5371319.7            0    3686529.4    63259.628     1.624892 
      75         0.75    113141.81    3905239.5    3905239.5    1465706.9    5370946.4            0    3704663.2    63261.185    1.6248521 
      76         0.76    115532.52    3873876.9    3873876.9    1496677.6    5370554.5            0    3722697.3    63262.766    1.6248114 
      77         0.77    117925.94    3842459.9    3842459.9    1527683.4    5370143.3            0    3740632.6    63264.373    1.6247702 
      78         0.78    120321.31    3810997.9    3810997.9    1558714.5    5369712.4            0    3758456.4    63266.004    1.6247283 
      79         0.79    122717.87    3779499.8    3779499.8      1589761    5369260.8            0      3776163    63267.662    1.6246857 
      80          0.8    125114.89    3747974.5    3747974.5    1620813.4    5368787.9            0    3793738.8    63269.345    1.6246425 
      81         0.81    127511.64    3716430.8    3716430.8    1651862.3    5368293.1            0    3811185.5    63271.053    1.6245986 
      82         0.82     129907.4    3684877.4    3684877.4    1682898.5    5367775.9            0    3828498.5    63272.787    1.6245541 
      83         0.83    132301.47    3653322.9    3653322.9    1713912.7    5367235.6            0    3845669.5    63274.547    1.6245089 
      84         0.84    134693.16    3621775.3    3621775.3    1744896.1    5366671.4            0    3862689.1    63276.333    1.6244631 
      85         0.85     137081.8      3590243      3590243    1775839.9    5366082.9            0    3879554.3    63278.145    1.6244165 
      86         0.86    139466.71    3558733.7    3558733.7    1806735.5    5365469.2            0    3896248.6    63279.984    1.6243693 
      87         0.87    141847.25    3527255.5    3527255.5    1837574.5      5364830            0    3912779.7    63281.849    1.6243215 
      88         0.88    144222.79    3495815.7    3495815.7    1868348.6    5364164.3            0    3929138.7     63283.74    1.6242729 
      89         0.89     146592.7      3464422      3464422    1899049.9    5363471.8            0    3945318.8    63285.657    1.6242237 
      90          0.9    148956.38    3433081.4    3433081.4    1929670.4    5362751.8            0    3961314.2    63287.602    1.6241738 
      91         0.91    151313.24    3401801.4    3401801.4    1960202.5      5362004            0    3977125.4    63289.573    1.6241232 
      92         0.92     153662.7      3370589      3370589    1990638.9    5361227.9            0    3992747.2    63291.571     1.624072 
      93         0.93    156004.21    3339450.7    3339450.7    2020972.2    5360422.9            0    4008173.8    63293.596      1.62402 
      94         0.94    158337.22    3308393.1    3308393.1    2051195.4    5359588.4            0    4023396.6    63295.648    1.6239674 
      95         0.95     160661.2    3277422.7    3277422.7    2081301.7    5358724.4            0    4038420.7    63297.727     1.623914 
      96         0.96    162975.65    3246545.8    3246545.8    2111284.4    5357830.2            0    4053235.8    63299.834      1.62386 
      97         0.97    165280.07    3215768.3    3215768.3    2141137.3    5356905.6            0    4067842.7    63301.968    1.6238052 
      98         0.98    167573.99    3185096.1    3185096.1    2170854.1    5355950.2            0    4082240.2    63304.129    1.6237498 
      99         0.99    169856.95    3154535.2    3154535.2    2200428.9    5354964.1            0      4096420    63306.318    1.6236936 
     100            1     172128.5    3124090.7    3124090.7      2229856    5353946.7            0    4110384.2    63308.535    1.6236368 
     101         1.01    174388.23    3093768.5    3093768.5    2259129.8    5352898.2            0    4124131.8    63310.779    1.6235792 
     102         1.02    176635.72    3063573.3    3063573.3    2288245.1    5351818.4            0    4137651.5    63313.052     1.623521 
     103         1.03    178870.58    3033510.4    3033510.4    2317196.9    5350707.3            0    4150948.7    63315.352     1.623462 
     104         1.04    181092.45    3003584.3    3003584.3    2345980.4    5349564.7            0      4164022     63317.68    1.6234023 
     105         1.05    183300.98    2973800.1    2973800.1    2374590.9    5348391.1            0    4176877.2    63320.037    1.6233419 
     106         1.06    185495.82    2944162.1    2944162.1    2403024.2    5347186.3            0    4189508.4    63322.421    1.6232807 
     107         1.07    187676.66    2914674.6    2914674.6    2431276.2    5345950.8            0    4201915.1    63324.834    1.6232189 
     108         1.08     189843.2    2885341.6    2885341.6    2459342.8    5344684.5            0    4214082.8    63327.275    1.6231563 
     109         1.09    191995.16    2856167.3    2856167.3    2487220.5    5343387.9            0      4226020    63329.745     1.623093 
     110          1.1    194132.26    2827155.4    2827155.4    2514905.8    5342061.2            0    4237722.8    63332.243     1.623029 
     111         1.11    196254.25    2798309.6    2798309.6    2542395.5    5340705.1            0    4249200.9     63334.77    1.6229642 
     112         1.12    198360.92    2769633.4    2769633.4    2569686.4    5339319.9            0    4260448.8    63337.326    1.6228987 
     113         1.13    200452.03    2741130.2    2741130.2    2596775.9    5337906.2            0      4271463     63339.91    1.6228325 
     114         1.14    202527.38    2712803.3    2712803.3    2623661.3    5336464.6            0    4282252.6    63342.523    1.6227656 
     115         1.15     204586.8    2684655.2    2684655.2    2650340.3    5334995.4            0    4292811.5    63345.166    1.6226979 
     116         1.16    206630.11    2656689.3    2656689.3    2676810.5    5333499.8            0      4303142    63347.837    1.6226295 
     117         1.17    208657.15    2628908.3    2628908.3      2703070    5331978.4            0    4313248.4    63350.537    1.6225603 
     118         1.18    210667.78    2601314.6    2601314.6      2729117    5330431.5            0    4323122.5    63353.266    1.6224904 
     119         1.19    212661.88    2573910.7    2573910.7    2754949.7    5328860.4            0    4332777.9    63356.024    1.6224198 
     120          1.2    214639.33    2546698.9    2546698.9    2780566.8    5327265.7            0    4342205.5    63358.811    1.6223484 
     121         1.21    216600.02    2519681.5    2519681.5    2805966.7    5325648.2            0      4351414    63361.628    1.6222763 
     122         1.22    218543.86    2492860.2    2492860.2    2831148.4    5324008.7            0    4360401.4    63364.474    1.6222034 
     123         1.23    220470.77    2466237.1    2466237.1    2856110.8    5322347.9            0    4369170.5     63367.35    1.6221298 
     124         1.24    222380.68    2439814.1    2439814.1    2880852.9    5320666.9            0    4377725.1    63370.255    1.6220554 
     125         1.25    224273.53    2413592.4    2413592.4    2905373.9    5318966.3            0    4386063.5    63373.189    1.6219803 
     126         1.26    226149.25    2387573.8    2387573.8    2929673.2      5317247            0    4394188.6    63376.153    1.6219045 
     127         1.27    228007.81    2361759.7    2361759.7    2953750.1    5315509.8            0    4402101.2    63379.147    1.6218279 
     128         1.28    229849.17      2336151      2336151    2977604.1    5313755.1            0    4409804.7     63382.17    1.6217505 
     129         1.29    231673.28    2310749.3    2310749.3    3001234.8    5311984.2            0    4417301.2    63385.223    1.6216724 
     130          1.3    233480.14    2285555.6    2285555.6    3024641.9    5310197.5            0    4424592.4    63388.305    1.6215935 
     131         1.31     235269.7    2260570.6    2260570.6      3047825    5308395.6            0    4431680.1    63391.417    1.6215139 
     132         1.32    237041.97    2235795.1    2235795.1      3070784    5306579.1            0    4438569.9     63394.56    1.6214336 
     133         1.33    238796.91    2211230.2    2211230.2    3093518.6    5304748.7            0    4445263.1    63397.731    1.6213524 
     134         1.34    240534.53    2186876.2    2186876.2    3116028.8    5302904.9            0    4451764.1    63400.933    1.6212705 
     135         1.35    242254.82    2162733.6    2162733.6    3138314.4      5301048            0    4458075.9    63404.165    1.6211879 
     136         1.36    243957.77    2138802.8    2138802.8    3160375.4    5299178.3            0    4464200.9    63407.427    1.6211045 
     137         1.37    245643.38    2115084.3    2115084.3    3182211.9    5297296.2            0    4470140.7    63410.718    1.6210204 
     138         1.38    247311.66    2091578.4    2091578.4    3203823.7    5295402.2            0    4475893.6     63414.04    1.6209355 
     139         1.39     248962.6    2068285.2    2068285.2      3225211    5293496.2            0    4481468.8    63417.391    1.6208498 
     140          1.4    250596.21    2045204.7    2045204.7    3246373.8    5291578.5            0    4486867.3    63420.773    1.6207634 
     141         1.41     252212.5    2022336.7    2022336.7    3267312.2    5289648.9            0      4492082    63424.185    1.6206762 
     142         1.42    253811.46    1999681.4    1999681.4    3288026.1    5287707.5            0    4497116.1    63427.627    1.6205882 
     143         1.43    255393.11    1977238.4    1977238.4    3308515.7    5285754.1            0    4501978.7    63431.099    1.6204995 
     144         1.44    256957.45    1955007.9    1955007.9    3328781.1      5283789            0    4506680.2    63434.601    1.6204101 
     145         1.45    258504.49    1932989.2    1932989.2    3348822.4    5281811.6            0    4511203.3    63438.133    1.6203198 
     146         1.46    260034.25      1911182      1911182    3368639.8    5279821.8            0      4515559    63441.696    1.6202289 
     147         1.47    261546.72    1889585.8    1889585.8    3388233.3    5277819.1            0    4519756.9    63445.288    1.6201371 
     148         1.48    263041.93    1868200.3    1868200.3    3407603.1    5275803.4            0    4523791.4    63448.911    1.6200446 
     149         1.49    264519.89    1847024.7    1847024.7    3426749.5    5273774.2            0    4527674.7    63452.564    1.6199513 
     150          1.5    265980.61    1826058.5    1826058.5    3445672.5      5271731            0      4531394    63456.247    1.6198573 
     151         1.51    267424.11    1805301.1    1805301.1    3464372.5    5269673.6            0    4534960.9    63459.961    1.6197625 
     152         1.52     268850.4    1784751.7    1784751.7    3482849.5    5267601.2            0    4538371.3    63463.705     1.619667 
     153         1.53    270259.51    1764409.3    1764409.3    3501103.9    5265513.3            0    4541629.2    63467.479    1.6195707 
     154         1.54    271651.45    1744273.4    1744273.4      3519136    5263409.4            0    4544737.1    63471.283    1.6194736 
     155         1.55    273026.25    1724342.9    1724342.9      3536946    5261288.9            0    4547701.9    63475.117    1.6193758 
     156         1.56    274383.93    1704617.1    1704617.1    3554534.2    5259151.3            0    4550527.2    63478.982    1.6192772 
     157         1.57    275724.52    1685094.6    1685094.6    3571901.1    5256995.6            0    4553208.5    63482.877    1.6191778 
     158         1.58    277048.06    1665774.8    1665774.8    3589046.9    5254821.8            0    4555753.5    63486.802    1.6190777 
     159         1.59    278354.57    1646656.5    1646656.5    3605972.3    5252628.8            0      4558160    63490.757    1.6189768 
     160          1.6    279644.09    1627738.8    1627738.8    3622677.5    5250416.3            0    4560437.8    63494.743    1.6188752 
     161         1.61    280916.66    1609020.1    1609020.1    3639163.1    5248183.3            0    4562582.7    63498.759    1.6187728 
     162         1.62    282172.32    1590499.4    1590499.4    3655429.7    5245929.1            0    4564595.5    63502.805    1.6186697 
     163         1.63    283411.12    1572175.7    1572175.7    3671477.9    5243653.6            0      4566480    63506.881    1.6185658 
     164         1.64    284633.11    1554047.6    1554047.6    3687308.2    5241355.8            0      4568241    63510.987    1.6184611 
     165         1.65    285838.33    1536113.7    1536113.7    3702921.3      5239035            0    4569875.2    63515.124    1.6183557 
     166         1.66    287026.84    1518372.9    1518372.9      3718318    5236690.9            0      4571388    63519.291    1.6182496 
     167         1.67     288198.7    1500823.7    1500823.7      3733499    5234322.7            0    4572780.8    63523.488    1.6181427 
     168         1.68    289353.97    1483465.1    1483465.1    3748465.1    5231930.2            0    4574056.3    63527.715     1.618035 
     169         1.69    290492.72    1466295.3    1466295.3    3763217.1    5229512.5            0    4575214.5    63531.972    1.6179266 
     170          1.7    291615.02    1449313.4    1449313.4    3777756.1    5227069.4            0    4576260.1    63536.259    1.6178174 
     171         1.71    292720.94    1432517.4    1432517.4    3792082.8    5224600.3            0      4577190    63540.577    1.6177075 
     172         1.72    293810.56    1415906.2    1415906.2    3806198.4    5222104.6            0    4578007.4    63544.924    1.6175968 
     173         1.73    294883.96    1399478.3    1399478.3    3820103.9    5219582.1            0    4578714.7    63549.301    1.6174854 
     174         1.74    295941.22    1383232.1    1383232.1    3833800.3    5217032.4            0    4579313.2    63553.709    1.6173732 
     175         1.75    296982.44    1367166.1    1367166.1    3847288.8    5214454.9            0    4579804.4    63558.146    1.6172603 
     176         1.76     298007.7    1351278.8    1351278.8    3860570.6    5211849.4            0    4580189.6    63562.613    1.6171466 
     177         1.77     299017.1    1335568.8    1335568.8      3873647    5209215.8            0    4580466.4     63567.11    1.6170322 
     178         1.78    300010.74    1320034.4    1320034.4    3886519.3    5206553.7            0    4580638.3    63571.637    1.6169171 
     179         1.79    300988.72    1304674.3    1304674.3    3899188.7      5203863            0    4580705.2    63576.194    1.6168012 
     180          1.8    301951.16    1289486.6    1289486.6    3911656.7    5201143.3            0    4580688.3     63580.78    1.6166846 
     181         1.81    302898.17      1274470      1274470    3923924.8    5198394.8            0    4580675.4    63585.397    1.6165672 
     182         1.82    303829.89    1259622.2    1259622.2    3935994.8    5195617.1            0    4580890.8    63590.043    1.6164491 
     183         1.83    304746.49    1244941.7    1244941.7    3947869.1    5192810.8            0    4581452.6    63594.719    1.6163302 
     184         1.84    305648.13    1230425.1    1230425.1    3959549.4    5189974.5            0    4581703.4    63599.424    1.6162106 
     185         1.85    306534.91    1216071.8    1216071.8    3971037.3    5187109.1            0    4581815.2    63604.159    1.6160903 
     186         1.86    307406.97    1201881.4    1201881.4    3982334.4    5184215.8            0    4581754.5    63608.923    1.6159693 
     187         1.87     308264.5      1187850      1187850    3993443.4    5181293.4            0    4582526.8    63613.717    1.6158475 
     188         1.88    309107.78    1173972.7    1173972.7    4004367.7    5178340.4            0    4583935.7    63618.541     1.615725 
     189         1.89    309936.61    1160254.3    1160254.3      4015105    5175359.3            0    4580236.8    63623.394    1.6156017 
     190          1.9    310750.79    1146699.3    1146699.3    4025652.4    5172351.7            0    4577901.3    63628.276    1.6154778 
     191         1.91     311550.7    1133299.5    1133299.5    4036014.9    5169314.4            0      4577500    63633.188    1.6153531 
     192         1.92    312336.69    1120051.8    1120051.8      4046197    5166248.8            0    4576793.8    63638.129    1.6152277 
     193         1.93    313108.82    1106955.7    1106955.7    4056199.6    5163155.3            0    4574752.2    63643.099    1.6151015 
     194         1.94    313867.13    1094011.6    1094011.6    4066023.3    5160034.9            0    4572483.8    63648.098    1.6149747 
     195         1.95     314611.9    1081215.1    1081215.1    4075671.4    5156886.5            0      4572516    63653.126    1.6148471 
     196         1.96    315343.25    1068564.9    1068564.9    4085145.9    5153710.7            0    4569926.3    63658.184    1.6147188 
     197         1.97    316061.14    1056060.3    1056060.3    4094445.8    5150506.1            0    4566470.3     63663.27    1.6145898 
     198         1.98    316765.73    1043703.3    1043703.3    4103573.5    5147276.8            0    4564009.2    63668.385    1.6144601 
     199         1.99     317457.3    1031489.6    1031489.6    4112532.5    5144022.1            0    4562371.1    63673.529    1.6143296 
     200            2    318136.11    1019413.9    1019413.9    4121326.2    5140740.1            0    4561573.2    63678.702    1.6141985 
     201         2.01    318802.45    1007476.4    1007476.4    4129958.4    5137434.9            0    4561633.9    63683.903    1.6140667 
     202         2.02    319456.68     995669.1     995669.1    4138433.6    5134102.7            0    4563016.1    63689.133    1.6139341 
     203         2.03    320099.11    983989.14    983989.14      4146756    5130745.2            0    4564777.5    63694.392    1.6138009 
     204         2.04    320729.58    972439.75    972439.75    4154923.6    5127363.3            0      4561142    63699.679    1.6136669 
     205         2.05    321347.79    961028.49    961028.49    4162932.2    5123960.7            0    4556762.1    63704.994    1.6135323 
     206         2.06    321953.96    949748.38    949748.38      4170785    5120533.4            0      4554798    63710.338     1.613397 
     207         2.07    322548.37    938596.89    938596.89    4178485.3    5117082.2            0    4552012.9    63715.711    1.6132609 
     208         2.08     323131.1    927573.91    927573.91    4186034.3    5113608.2            0    4548767.4    63721.111    1.6131242 
     209         2.09    323702.37    916677.85    916677.85    4193434.9    5110112.7            0    4546598.6    63726.539    1.6129868 
     210          2.1    324262.64    905902.72    905902.72    4200692.9    5106595.6            0    4546696.2    63731.996    1.6128487 
     211         2.11    324812.38    895244.44    895244.44    4207814.7    5103059.1            0    4547771.4    63737.481    1.6127099 
     212         2.12    325351.87    884695.16    884695.16    4214803.5    5099498.6            0    4548759.9    63742.993    1.6125704 
     213         2.13    325881.02    874259.47    874259.47    4221658.4    5095917.9            0    4548927.8    63748.533    1.6124303 
     214         2.14    326399.95    863937.45    863937.45      4228381    5092318.5            0      4550236    63754.101    1.6122895 
     215         2.15    326908.99    853721.18    853721.18    4234975.4    5088696.6            0    4550312.4    63759.697     1.612148 
     216         2.16    327407.93    843616.67    843616.67    4241438.9    5085055.6            0    4545299.5     63765.32    1.6120058 
     217         2.17    327895.98     833633.3     833633.3    4247761.4    5081394.7            0    4534924.9    63770.971     1.611863 
     218         2.18    328372.76    823781.79    823781.79    4253937.9    5077719.7            0      4523701    63776.649    1.6117194 
     219         2.19     328838.8    814051.08    814051.08    4259975.3    5074026.4            0    4518676.1    63782.355    1.6115753 
     220          2.2    329294.92    804432.54    804432.54    4265884.1    5070316.7            0      4516891    63788.087    1.6114304 
     221         2.21    329741.43    794920.74    794920.74    4271668.5    5066589.3            0    4512528.3    63793.847    1.6112849 
     222         2.22    330178.54    785512.84    785512.84      4277331    5062843.9            0    4509546.8    63799.634    1.6111388 
     223         2.23    330606.48    776206.76    776206.76    4282874.9    5059081.6            0    4507077.9    63805.447     1.610992 
     224         2.24    331025.38     767001.8     767001.8    4288301.6    5055303.4            0    4505492.9    63811.287    1.6108446 
     225         2.25    331435.39     757896.5     757896.5    4293613.1    5051509.6            0    4503598.5    63817.154    1.6106965 
     226         2.26     331836.3    748890.78    748890.78    4298806.7    5047697.4            0    4496569.4    63823.047    1.6105478 
     227         2.27    332227.98    739992.67    739992.67    4303880.8    5043873.4            0    4493148.4    63828.967    1.6103984 
     228         2.28       332611    731188.41    731188.41    4308842.7    5040031.1            0      4495372    63834.913    1.6102484 
     229         2.29    332985.71    722474.99    722474.99    4313696.9    5036171.9            0    4493692.5    63840.885    1.6100978 
     230          2.3    333351.81    713855.77    713855.77    4318439.5    5032295.3            0    4486369.5    63846.883    1.6099465 
     231         2.31    333709.01    705339.61    705339.61    4323066.9    5028406.5            0    4479297.6    63852.908    1.6097946 
     232         2.32    334057.66    696918.28    696918.28    4327583.5    5024501.8            0    4476658.7    63858.958    1.6096421 
     233         2.33    334398.24    688586.25    688586.25    4331995.6    5020581.9            0    4473742.1    63865.034    1.6094889 
     234         2.34    334730.99    680341.58    680341.58    4336306.3    5016647.9            0    4470653.4    63871.135    1.6093352 
     235         2.35    335055.87    672186.05    672186.05    4340514.9      5012701            0    4467233.8    63877.262    1.6091808 
     236         2.36    335372.64    664121.06    664121.06    4344618.6    5008739.7            0    4462493.7    63883.414    1.6090259 
     237         2.37    335681.45    656145.99    656145.99      4348619      5004765            0    4459993.5    63889.592    1.6088703 
     238         2.38    335982.72    648254.78    648254.78    4352521.9    5000776.7            0    4458952.9    63895.795    1.6087141 
     239         2.39    336276.51    640445.38    640445.38    4356327.8    4996773.2            0    4452907.9    63902.023    1.6085573 
     240          2.4    336562.63    632723.22    632723.22    4360034.4    4992757.6            0    4447035.7    63908.275    1.6083999 
     241         2.41    336841.34    625086.38    625086.38    4363644.9    4988731.3            0    4444041.9    63914.553     1.608242 
     242         2.42    337112.92    617524.76    617524.76    4367163.2      4984688            0    4439578.8    63920.855    1.6080834 
     243         2.43    337377.18    610045.08    610045.08    4370586.6    4980631.7            0    4432064.1    63927.181    1.6079243 
     244         2.44    337633.77    602652.47    602652.47    4373910.6    4976563.1            0    4425354.9    63933.532    1.6077645 
     245         2.45    337883.14    595340.04    595340.04    4377141.1    4972481.1            0    4423093.3    63939.907    1.6076042 
     246         2.46    338125.95    588100.17    588100.17    4380286.6    4968386.8            0    4419855.8    63946.306    1.6074434 
     247         2.47    338362.23    580930.71    580930.71    4383347.5    4964278.2            0    4415938.6    63952.729    1.6072819 
     248         2.48    338592.13    573831.28    573831.28    4386325.8    4960157.1            0    4415503.3    63959.176    1.6071199 
     249         2.49    338816.37    566792.56    566792.56    4389230.7    4956023.2            0    4420434.4    63965.647    1.6069573 
     250          2.5    339035.19    559808.21    559808.21    4392065.5    4951873.7            0    4422295.9    63972.141    1.6067942 
     251         2.51    339247.96    552889.74    552889.74    4394821.7    4947711.5            0    4415279.9    63978.658    1.6066305 
     252         2.52     339453.5    546054.22    546054.22    4397484.4    4943538.6            0    4401767.1    63985.199    1.6064663 
     253         2.53     339651.2    539310.65    539310.65    4400045.6    4939356.2            0    4389973.5    63991.763    1.6063015 
     254         2.54    339841.88    532646.57    532646.57    4402515.8    4935162.4            0    4387090.1     63998.35    1.6061362 
     255         2.55    340027.03    526041.87    526041.87    4404914.4    4930956.2            0    4388429.8     64004.96    1.6059703 
     256         2.56    340207.57    519483.88    519483.88    4407253.1      4926737            0    4391440.4    64011.593    1.6058039 
     257         2.57    340383.24    512975.09    512975.09    4409528.8    4922503.9            0    4388220.3    64018.248     1.605637 
     258         2.58    340553.23    506529.28    506529.28    4411731.1    4918260.4            0    4381367.7    64024.925    1.6054695 
     259         2.59    340717.08    500151.92    500151.92    4413853.7    4914005.6            0      4373421    64031.625    1.6053015 
     260          2.6    340874.67    493846.42    493846.42    4415895.1    4909741.6            0    4367779.7    64038.347     1.605133 
     261         2.61    341026.38    487606.13    487606.13    4417860.6    4905466.7            0    4366358.4     64045.09     1.604964 
     262         2.62    341172.82    481421.78    481421.78    4419757.5    4901179.3            0    4364536.7    64051.856    1.6047945 
     263         2.63    341314.37    475290.09    475290.09    4421591.3    4896881.3            0    4364250.8    64058.643    1.6046245 
     264         2.64    341451.41    469204.47    469204.47    4423366.7    4892571.1            0    4363627.3    64065.452    1.6044539 
     265         2.65    341584.05    463164.52    463164.52    4425084.9    4888249.4            0    4361513.6    64072.282    1.6042829 
     266         2.66    341711.73    457176.54    457176.54    4426738.9    4883915.4            0    4355791.3    64079.133    1.6041114 
     267         2.67    341833.56    451254.79    451254.79    4428317.2      4879572            0    4347108.4    64086.005    1.6039394 
     268         2.68    341948.92    445408.35    445408.35    4429811.6      4875220            0    4336894.8    64092.899    1.6037668 
     269         2.69     342057.9    439635.05    439635.05    4431223.5    4870858.5            0    4329167.6    64099.812    1.6035939 
     270          2.7    342160.85    433928.84    433928.84    4432557.1    4866485.9            0    4320781.1    64106.747    1.6034204 
     271         2.71    342257.87    428291.97    428291.97    4433813.9    4862105.9            0      4311435    64113.701    1.6032465 
     272         2.72    342349.38     422715.8     422715.8    4434999.4    4857715.2            0      4303584    64120.676    1.6030721 
     273         2.73    342435.78    417195.21    417195.21    4436118.7    4853313.9            0    4297564.4    64127.671    1.6028972 
     274         2.74    342517.17     411731.4     411731.4    4437173.1    4848904.5            0    4292382.2    64134.685    1.6027219 
     275         2.75    342593.96    406318.02    406318.02    4438167.9    4844485.9            0    4290439.9    64141.719    1.6025462 
     276         2.76    342666.63    400947.42    400947.42    4439109.3    4840056.7            0    4288234.8    64148.772      1.60237 
     277         2.77    342735.12    395622.29    395622.29    4439996.5    4835618.8            0    4283688.1    64155.844    1.6021933 
     278         2.78    342799.13    390346.43    390346.43    4440825.8    4831172.2            0    4278576.8    64162.936    1.6020162 
     279         2.79    342858.05    385125.95    385125.95      4441589      4826715            0      4270396    64170.046    1.6018387 
     280          2.8    342911.28    379973.06    379973.06    4442278.6    4822251.7            0    4260910.2    64177.175    1.6016608 
     281         2.81    342959.53    374877.84    374877.84    4442903.7    4817781.5            0    4259369.8    64184.323    1.6014824 
     282         2.82    343004.46    369816.13    369816.13    4443485.8    4813301.9            0    4266075.3    64191.488    1.6013037 
     283         2.83    343047.14    364770.66    364770.66    4444038.6    4808809.2            0    4273594.6    64198.672    1.6011245 
     284         2.84    343087.38    359744.96    359744.96    4444559.9    4804304.9            0    4276882.8    64205.874    1.6009449 
     285         2.85    343123.94    354759.09    354759.09    4445033.5    4799792.6            0    4268962.7    64213.094    1.6007649 
     286         2.86    343155.45    349831.37    349831.37    4445441.8    4795273.1            0    4256927.1    64220.332    1.6005845 
     287         2.87    343181.58     344967.2     344967.2    4445780.2    4790747.4            0    4246101.4    64227.587    1.6004037 
     288         2.88    343202.67    340160.57    340160.57    4446053.5      4786214            0    4237423.3    64234.859    1.6002225 
     289         2.89    343219.39    335404.86    335404.86    4446270.1      4781675            0    4232645.7    64242.149    1.6000409 
     290          2.9    343232.33    330689.44    330689.44    4446437.7    4777127.2            0    4230271.1    64249.455    1.5998589 
     291         2.91    343241.59    326012.77    326012.77    4446557.7    4772570.4            0    4225164.5    64256.779    1.5996766 
     292         2.92     343247.4    321374.37    321374.37    4446632.9    4768007.2            0    4223871.2    64264.118    1.5994939 
     293         2.93     343250.3    316765.21    316765.21    4446670.5    4763435.7            0    4225297.1    64271.474    1.5993108 
     294         2.94    343250.47     312181.3     312181.3    4446672.7      4758854            0    4226721.9    64278.846    1.5991274 
     295         2.95    343247.25     307633.5     307633.5    4446630.9    4754264.4            0    4219090.7    64286.235    1.5989436 
     296         2.96    343239.39    303138.97    303138.97    4446529.1    4749668.1            0    4208080.3    64293.639    1.5987595 
     297         2.97    343226.04    298710.56    298710.56    4446356.2    4745066.8            0    4195256.6    64301.059     1.598575 
     298         2.98    343207.49    294345.51    294345.51    4446115.9    4740461.4            0    4187719.7    64308.494    1.5983902 
     299         2.99    343185.04    290024.17    290024.17    4445825.1    4735849.2            0    4185161.7    64315.944     1.598205 
     300            3    343159.65    285732.61    285732.61    4445496.2    4731228.8            0    4183442.9    64323.409    1.5980196 
     301         3.01    343130.99    281476.43    281476.43    4445124.9    4726601.4            0    4176234.7    64330.889    1.5978338 
     302         3.02    343098.27    277268.72    277268.72      4444701    4721969.8            0    4166509.3    64338.384    1.5976476 
     303         3.03    343061.49    273106.67    273106.67    4444224.5    4717331.2            0    4157207.1    64345.892    1.5974612 
     304         3.04    343021.21    268985.28    268985.28    4443702.7      4712688            0    4152810.2    64353.415    1.5972744 
     305         3.05    342977.61    264898.88    264898.88    4443137.9    4708036.8            0    4151598.9    64360.952    1.5970874 
     306         3.06    342930.86    260848.97    260848.97    4442532.3    4703381.2            0    4154708.1    64368.503    1.5969001 
     307         3.07    342881.61    256822.99    256822.99    4441894.3    4698717.3            0      4157731    64376.067    1.5967124 
     308         3.08    342829.94    252821.56    252821.56    4441224.9    4694046.4            0    4153914.9    64383.645    1.5965245 
     309         3.09    342775.59    248850.99    248850.99    4440520.8    4689371.8            0    4150846.9    64391.236    1.5963363 
     310          3.1    342718.71    244905.28    244905.28    4439783.9    4684689.2            0    4147977.3     64398.84    1.5961478 
     311         3.11    342658.61    240993.11    240993.11    4439005.4    4679998.5            0    4138069.4    64406.457     1.595959 
     312         3.12    342594.06    237137.41    237137.41    4438169.1    4675306.5            0    4126045.4    64414.086      1.59577 
     313         3.13     342525.8    233328.29    233328.29    4437284.9    4670613.2            0    4127252.6    64421.728    1.5955807 
     314         3.14    342456.25    229526.12    229526.12    4436383.8      4665910            0    4137088.4    64429.382    1.5953911 
     315         3.15    342386.01    225723.93    225723.93      4435474    4661197.9            0    4140443.6    64437.048    1.5952013 
     316         3.16    342314.11    221938.56    221938.56    4434542.6    4656481.1            0    4137841.1    64444.726    1.5950113 
     317         3.17    342240.12    218174.84    218174.84      4433584    4651758.8            0    4137035.9    64452.416     1.594821 
     318         3.18    342163.82    214435.43    214435.43    4432595.6      4647031            0    4132367.1    64460.118    1.5946304 
     319         3.19    342084.64    210727.06    210727.06    4431569.8    4642296.9            0    4124806.7    64467.831    1.5944397 
     320          3.2     342002.1     207061.3     207061.3    4430500.6    4637561.9            0    4115826.2    64475.555    1.5942486 
     321         3.21    341916.56    203430.85    203430.85    4429392.4    4632823.3            0    4110706.9     64483.29    1.5940574 
     322         3.22    341828.94    199821.31    199821.31    4428257.4    4628078.7            0    4108195.9    64491.036    1.5938659 
     323         3.23     341739.2    196234.52    196234.52    4427094.8    4623329.3            0    4104224.3    64498.792    1.5936743 
     324         3.24    341646.79    192678.48    192678.48    4425897.6    4618576.1            0    4102693.8    64506.559    1.5934824 
     325         3.25    341552.04       189148       189148    4424670.2    4613818.2            0    4104828.7    64514.335    1.5932903 
     326         3.26    341455.22    185637.89    185637.89      4423416    4609053.8            0    4103643.2    64522.122     1.593098 
     327         3.27    341355.72    182158.05    182158.05    4422126.9      4604285            0    4096491.5    64529.919    1.5929056 
     328         3.28    341253.08    178716.71    178716.71    4420797.3      4599514            0      4089606    64537.725    1.5927129 
     329         3.29    341147.11    175312.95    175312.95    4419424.5    4594737.5            0    4078710.2     64545.54      1.59252 
     330          3.3    341037.31    171958.16    171958.16    4418002.1    4589960.3            0    4065666.3    64553.365     1.592327 
     331         3.31    340923.47    168652.17    168652.17    4416527.3    4585179.5            0    4055475.6    64561.198    1.5921338 
     332         3.32     340805.8    165394.95    165394.95      4415003      4580398            0    4047627.3     64569.04    1.5919404 
     333         3.33    340685.07    162174.97    162174.97      4413439      4575614            0    4043000.9    64576.891    1.5917469 
     334         3.34    340562.36    158975.72    158975.72    4411849.3      4570825            0    4039500.8    64584.749    1.5915532 
     335         3.35     340438.1    155792.84    155792.84    4410239.6    4566032.5            0    4035263.3    64592.616    1.5913594 
     336         3.36    340311.88    152631.51    152631.51    4408604.4    4561235.9            0    4028135.8     64600.49    1.5911654 
     337         3.37     340183.7    149494.88    149494.88    4406943.9    4556438.8            0    4028978.7    64608.372    1.5909713 
     338         3.38    340054.19    146368.76    146368.76    4405266.2      4551635            0    4032351.5    64616.261    1.5907771 
     339         3.39    339923.12    143259.19    143259.19    4403568.3    4546827.5            0    4029116.2    64624.158    1.5905827 
     340          3.4     339790.1    140172.35    140172.35      4401845    4542017.4            0    4024031.4    64632.061    1.5903882 
     341         3.41    339655.15    137106.06    137106.06    4400096.8    4537202.9            0    4020979.6    64639.971    1.5901936 
     342         3.42    339518.17    134064.75    134064.75    4398322.2      4532387            0    4018461.3    64647.888    1.5899988 
     343         3.43    339379.14    131045.79    131045.79    4396521.1    4527566.9            0    4015461.2    64655.811     1.589804 
     344         3.44    339238.16    128049.17    128049.17    4394694.8      4522744            0    4009914.3    64663.741     1.589609 
     345         3.45    339095.71    125070.65    125070.65    4392849.4      4517920            0    4007011.7    64671.676     1.589414 
     346         3.46     338952.1     122100.2     122100.2    4390989.1    4513089.3            0    4004058.2    64679.618    1.5892188 
     347         3.47     338806.5    119155.31    119155.31    4389102.9    4508258.2            0    3996987.9    64687.565    1.5890236 
     348         3.48    338658.33    116243.32    116243.32    4387183.3    4503426.6            0    3991478.9    64695.517    1.5888283 
     349         3.49    338507.88     113357.2     113357.2    4385234.3    4498591.5            0    3985911.8    64703.475    1.5886329 
     350          3.5    338355.02    110500.36    110500.36    4383254.1    4493754.4            0    3977817.1    64711.437    1.5884374 
     351         3.51    338199.38    107679.03    107679.03    4381237.9    4488916.9            0    3968322.5    64719.405    1.5882418 
     352         3.52    338040.98    104892.49    104892.49    4379185.9    4484078.4            0      3960150    64727.377    1.5880462 
     353         3.53    337880.05    102137.61    102137.61    4377101.1    4479238.7            0    3954848.1    64735.353    1.5878506 
     354         3.54    337716.47    99414.418    99414.418    4374981.9    4474396.3            0    3947035.6    64743.333    1.5876548 
     355         3.55    337550.15     96726.38     96726.38    4372827.4    4469553.8            0    3938484.5    64751.317    1.5874591 
     356         3.56    337381.42    94069.106    94069.106    4370641.5    4464710.6            0    3930037.9    64759.305    1.5872633 
     357         3.57    337210.44    91438.916    91438.916    4368426.5    4459865.5            0    3922779.7    64767.297    1.5870674 
     358         3.58    337038.09    88827.771    88827.771    4366193.9    4455021.6            0    3923753.6    64775.291    1.5868715 
     359         3.59    336865.81    86209.526    86209.526      4363962    4450171.5            0    3929972.8    64783.289    1.5866756 
     360          3.6    336693.96    83581.871    83581.871    4361735.7    4445317.6            0    3932550.8    64791.289    1.5864797 
     361         3.61    336521.99    80953.674    80953.674      4359508    4440461.6            0    3934955.2    64799.292    1.5862838 
     362         3.62    336349.03    78335.967    78335.967    4357267.4    4435603.3            0    3930774.9    64807.298    1.5860878 
     363         3.63    336174.31    75740.998    75740.998    4355003.9    4430744.9            0    3925541.9    64815.307    1.5858918 
     364         3.64    335997.62    73168.966    73168.966    4352714.9    4425883.9            0    3919862.5    64823.317    1.5856959 
     365         3.65    335818.44    70629.166    70629.166    4350393.7    4421022.8            0    3908917.7     64831.33    1.5854999 
     366         3.66    335636.39    68129.045    68129.045    4348035.3    4416164.4            0    3898567.3    64839.345    1.5853039 
     367         3.67     335452.8    65648.224    65648.224      4345657    4411305.2            0      3897801    64847.361    1.5851079 
     368         3.68    335268.94    63165.236    63165.236    4343275.2    4406440.5            0    3896242.5    64855.378     1.584912 
     369         3.69    335084.39    60693.959    60693.959    4340884.4    4401578.4            0    3891633.2    64863.397     1.584716 
     370          3.7    334898.95    58231.156    58231.156    4338482.1    4396713.3            0      3890618    64871.417    1.5845201 
     371         3.71    334712.39    55780.296    55780.296    4336065.2    4391845.5            0    3886222.5    64879.438    1.5843242 
     372         3.72    334523.55     53359.57     53359.57      4333619    4386978.6            0    3877466.9    64887.459    1.5841284 
     373         3.73     334332.1    50973.752    50973.752    4331138.8    4382112.5            0    3870452.2    64895.481    1.5839326 
     374         3.74    334138.82    48610.362    48610.362    4328634.9    4377245.3            0    3866329.2    64903.503    1.5837368 
     375         3.75     333943.8    46268.482    46268.482    4326108.6      4372377            0    3858565.8    64911.526    1.5835411 
     376         3.76    333746.62    43956.252    43956.252    4323554.1    4367510.4            0    3850067.3    64919.548    1.5833454 
     377         3.77    333547.34    41670.765    41670.765    4320972.6    4362643.3            0    3841957.4     64927.57    1.5831497 
     378         3.78    333346.06    39409.749    39409.749      4318365    4357774.7            0    3834511.3    64935.592    1.5829542 
     379         3.79    333142.34     37179.97     37179.97      4315726    4352905.9            0      3823063    64943.613    1.5827587 
     380          3.8    332935.66    34992.109    34992.109    4313048.4    4348040.5            0    3811817.5    64951.633    1.5825632 
     381         3.81    332726.21    32840.528    32840.528    4310335.1    4343175.6            0      3803861    64959.651    1.5823679 
     382         3.82     332514.6     30716.37     30716.37    4307593.8    4338310.2            0    3798955.8    64967.669    1.5821726 
     383         3.83     332301.2    28616.363    28616.363    4304829.3    4333445.7            0    3792852.2    64975.685    1.5819774 
     384         3.84    332086.53    26536.457    26536.457    4302048.3    4328584.8            0    3790511.9    64983.699    1.5817823 
     385         3.85    331871.57     24455.44     24455.44    4299263.6    4323719.1            0    3791711.1    64991.712    1.5815873 
     386         3.86    331656.63    22375.009    22375.009    4296479.2    4318854.2            0    3790932.7    64999.722    1.5813924 
     387         3.87    331441.42     20296.54     20296.54    4293691.2    4313987.7            0    3788009.3    65007.731    1.5811976 
     388         3.88    331225.26    18230.503    18230.503    4290890.9    4309121.4            0    3779110.3    65015.737    1.5810029 
     389         3.89    331007.48    16189.517    16189.517    4288069.7    4304259.2            0    3769704.9     65023.74    1.5808083 
     390          3.9    330788.58    14161.707    14161.707    4285233.9    4299395.6            0    3765947.8    65031.741    1.5806138 
     391         3.91    330568.68    12146.067    12146.067    4282385.2    4294531.3            0    3759367.4     65039.74    1.5804194 
     392         3.92    330347.44    10150.643    10150.643    4279519.1    4289669.8            0    3756521.2    65047.735    1.5802251 
     393         3.93    330125.17    8166.6533    8166.6533    4276639.7    4284806.4            0    3754999.6    65055.727     1.580031 
     394         3.94    329901.51    6201.0005    6201.0005    4273742.3    4279943.3            0      3747895    65063.716     1.579837 
     395         3.95    329676.33    4258.2722    4258.2722    4270825.2    4275083.4            0    3743087.7    65071.701    1.5796431 
     396         3.96    329450.15    2327.8647    2327.8647    4267895.1    4270222.9            0    3737613.3    65079.683    1.5794494 
     397         3.97    329222.99    411.83154    411.83154    4264952.3    4265364.2            0    3731976.2     65087.66    1.5792558 
     398         3.98    328994.62   -1487.6449   -1487.6449    4261993.9    4260506.2            0    3725136.7    65095.634    1.5790624 
     399         3.99    328764.85   -3367.0255   -3367.0255    4259017.2    4255650.2            0    3718408.8    65103.604     1.578869 
     400            4    328534.15   -5231.7924   -5231.7924    4256028.7    4250796.9            0      3715951     65111.57    1.5786759 
     401         4.01     328303.3   -7095.6543   -7095.6543      4253038    4245942.4            0    3715245.8    65119.531    1.5784829 
     402         4.02    328072.25   -8958.9544   -8958.9544      4250045      4241086            0    3710756.1    65127.488      1.57829 
     403         4.03    327839.78    -10802.19    -10802.19    4247033.4    4236231.2            0    3698976.8     65135.44    1.5780974 
     404         4.04    327604.99   -12609.865   -12609.865    4243991.7    4231381.9            0    3689956.8    65143.388    1.5779048 
     405         4.05     327368.3   -14393.531   -14393.531    4240925.5      4226532            0    3683598.7     65151.33    1.5777125 
     406         4.06    327130.11   -16153.973   -16153.973    4237839.9    4221685.9            0    3677003.4    65159.267    1.5775203 
     407         4.07    326890.84   -17898.654   -17898.654    4234740.3    4216841.6            0    3672768.3    65167.199    1.5773283 
     408         4.08    326651.06   -19635.952   -19635.952      4231634      4211998            0    3668624.4    65175.125    1.5771365 
     409         4.09     326410.6   -21363.441   -21363.441    4228518.9    4207155.4            0    3660708.9    65183.046    1.5769448 
     410          4.1    326168.91    -23072.93    -23072.93    4225387.9      4202315            0      3651890    65190.961    1.5767533 
     411         4.11    325926.12   -24765.247   -24765.247    4222242.7    4197477.4            0    3646633.5     65198.87    1.5765621 
     412         4.12    325682.88   -26451.751   -26451.751    4219091.5    4192639.8            0    3644788.5    65206.773     1.576371 
     413         4.13    325439.56   -28136.566   -28136.566    4215939.4    4187802.9            0    3642794.3     65214.67    1.5761801 
     414         4.14    325196.17   -29819.372   -29819.372    4212786.5    4182967.1            0    3639936.4    65222.561    1.5759894 
     415         4.15    324952.22   -31494.338   -31494.338    4209626.1    4178131.8            0    3631855.6    65230.445    1.5757989 
     416         4.16     324706.5   -33142.906   -33142.906    4206442.9      4173300            0    3619685.2    65238.323    1.5756086 
     417         4.17    324458.43   -34757.102   -34757.102    4203229.3    4168472.2            0    3609802.5    65246.194    1.5754186 
     418         4.18     324208.5   -36345.391   -36345.391    4199991.5    4163646.2            0    3602161.9    65254.059    1.5752287 
     419         4.19    323957.35   -37914.721   -37914.721      4196738    4158823.3            0    3596473.3    65261.916     1.575039 
     420          4.2    323705.56   -39474.783   -39474.783    4193476.2    4154001.4            0    3592324.4    65269.766    1.5748496 
     421         4.21    323453.38   -41028.086   -41028.086    4190209.4    4149181.3            0    3587652.9     65277.61    1.5746604 
     422         4.22    323200.69   -42572.347   -42572.347    4186935.8    4144363.4            0    3581554.3    65285.445    1.5744714 
     423         4.23    322947.01   -44102.697   -44102.697    4183649.6    4139546.9            0    3573080.1    65293.274    1.5742826 
     424         4.24    322692.09   -45612.052   -45612.052    4180347.1    4134735.1            0    3566057.9    65301.095    1.5740941 
     425         4.25    322436.49    -47110.86    -47110.86    4177035.9      4129925            0    3565336.5    65308.908    1.5739058 
     426         4.26    322180.87   -48609.413   -48609.413    4173724.4      4125115            0    3565257.5    65316.713    1.5737177 
     427         4.27     321925.1   -50104.999   -50104.999      4170411      4120306            0    3560939.9    65324.511    1.5735298 
     428         4.28    321668.76   -51588.498   -51588.498    4167090.2    4115501.7            0    3555459.2      65332.3    1.5733422 
     429         4.29    321411.95   -53065.096   -53065.096    4163763.5    4110698.4            0    3552797.7    65340.082    1.5731548 
     430          4.3     321154.5   -54533.102   -54533.102    4160428.3    4105895.2            0    3544976.2    65347.855    1.5729677 
     431         4.31    320895.45   -55976.092   -55976.092    4157072.4    4101096.3            0    3533576.8    65355.621    1.5727808 
     432         4.32    320634.48   -57389.894   -57389.894    4153691.5    4096301.7            0      3523298    65363.377    1.5725942 
     433         4.33    320372.24   -58783.624   -58783.624    4150294.3    4091510.7            0    3517742.8    65371.126    1.5724078 
     434         4.34    320109.52   -60169.278   -60169.278    4146890.9    4086721.7            0    3513621.3    65378.866    1.5722216 
     435         4.35    319846.49   -61548.844   -61548.844    4143483.5    4081934.6            0    3508385.6    65386.597    1.5720357 
     436         4.36    319582.93   -62918.712   -62918.712    4140069.2    4077150.4            0    3502394.2    65394.319    1.5718501 
     437         4.37    319318.68   -64276.791   -64276.791    4136645.9    4072369.1            0    3496898.4    65402.032    1.5716647 
     438         4.38    319053.71    -65623.34    -65623.34    4133213.4      4067590            0    3491270.3    65409.737    1.5714796 
     439         4.39    318788.04   -66957.089   -66957.089    4129771.7    4062814.6            0    3485507.3    65417.432    1.5712947 
     440          4.4    318521.76   -68279.965   -68279.965    4126322.1    4058042.1            0      3480183    65425.119    1.5711101 
     441         4.41    318255.05   -69594.609   -69594.609      4122867    4053272.4            0    3475699.6    65432.796    1.5709258 
     442         4.42    317987.73   -70900.544   -70900.544    4119404.1    4048503.5            0    3468417.6    65440.464    1.5707417 
     443         4.43    317719.31   -72187.594   -72187.594    4115926.8    4043739.2            0    3459632.2    65448.122    1.5705579 
     444         4.44    317449.62   -73454.336   -73454.336      4112433    4038978.6            0    3451371.8    65455.771    1.5703744 
     445         4.45    317178.78   -74703.748   -74703.748    4108924.3    4034220.6            0    3443680.7    65463.411    1.5701911 
     446         4.46    316906.85   -75936.172   -75936.172    4105401.6    4029465.5            0    3435766.8     65471.04    1.5700081 
     447         4.47    316633.75   -77149.134   -77149.134    4101863.7    4024714.5            0    3427497.6     65478.66    1.5698254 
     448         4.48    316359.47   -78344.259   -78344.259    4098310.5    4019966.3            0    3419730.7    65486.271     1.569643 
     449         4.49    316084.31   -79524.456   -79524.456      4094746    4015221.5            0      3413788    65493.871    1.5694608 
     450          4.5    315808.59   -80694.021   -80694.021    4091174.1      4010480            0    3409163.6    65501.461     1.569279 
     451         4.51     315532.4   -81854.673   -81854.673    4087596.2    4005741.5            0    3405314.5    65509.042    1.5690974 
     452         4.52    315255.75   -83007.196   -83007.196    4084012.3    4001005.1            0    3400157.5    65516.612    1.5689161 
     453         4.53    314978.28   -84147.092   -84147.092    4080417.8    3996270.7            0    3391695.1    65524.172    1.5687351 
     454         4.54    314699.24   -85261.181   -85261.181      4076803    3991541.8            0    3380700.6    65531.722    1.5685543 
     455         4.55    314418.29   -86345.674   -86345.674    4073163.3    3986817.6            0      3370226    65539.261    1.5683739 
     456         4.56    314135.62   -87404.711   -87404.711    4069501.5    3982096.8            0    3360846.6     65546.79    1.5681937 
     457         4.57    313851.54   -88441.453   -88441.453    4065821.3    3977379.9            0    3352274.5    65554.309    1.5680139 
     458         4.58    313566.23   -89457.674   -89457.674    4062125.2    3972667.5            0    3344340.4    65561.817    1.5678343 
     459         4.59     313279.8    -90456.26    -90456.26    4058414.7    3967958.4            0    3337408.7    65569.315     1.567655 
     460          4.6    312992.32   -91437.992   -91437.992    4054690.4    3963252.4            0    3330475.5    65576.801    1.5674761 
     461         4.61    312703.59   -92399.912   -92399.912      4050950    3958550.1            0    3321827.8    65584.277    1.5672974 
     462         4.62    312413.25   -93337.138   -93337.138    4047188.9    3953851.7            0    3311828.2    65591.743     1.567119 
     463         4.63    312120.99   -94244.457   -94244.457    4043402.7    3949158.3            0    3301292.8    65599.197    1.5669409 
     464         4.64    311826.64   -95121.078   -95121.078    4039589.6    3944468.5            0    3290767.3     65606.64    1.5667631 
     465         4.65    311530.21   -95965.969   -95965.969    4035749.4    3939783.4            0    3280497.3    65614.073    1.5665857 
     466         4.66    311231.74   -96780.417   -96780.417    4031882.9    3935102.4            0    3270453.1    65621.494    1.5664085 
     467         4.67    310931.31   -97564.914   -97564.914    4027990.9      3930426            0      3260632    65628.904    1.5662316 
     468         4.68    310629.02   -98321.382   -98321.382    4024074.8    3925753.4            0    3251095.9    65636.303    1.5660551 
     469         4.69    310324.93   -99049.993   -99049.993    4020135.5    3921085.6            0    3241631.3     65643.69    1.5658788 
     470          4.7    310019.06   -99750.762   -99750.762    4016173.1    3916422.3            0    3232174.6    65651.066    1.5657029 
     471         4.71    309711.47    -100425.3    -100425.3    4012188.3      3911763            0    3223125.4    65658.431    1.5655273 
     472         4.72    309402.27   -101075.18   -101075.18    4008182.8    3907107.6            0    3214258.9    65665.785     1.565352 
     473         4.73    309091.46   -101699.43   -101699.43    4004156.4      3902457            0    3205231.8    65673.127     1.565177 
     474         4.74    308778.93   -102296.19   -102296.19    4000107.7    3897811.5            0      3195917    65680.457    1.5650023 
     475         4.75    308464.56   -102864.45   -102864.45    3996035.1    3893170.7            0    3186589.8    65687.776    1.5648279 
     476         4.76    308148.32   -103403.89   -103403.89    3991938.4    3888534.5            0    3177547.5    65695.083    1.5646539 
     477         4.77    307830.33   -103915.76   -103915.76      3987819    3883903.2            0    3169365.6    65702.378    1.5644801 
     478         4.78    307510.86   -104403.69   -104403.69    3983680.3    3879276.6            0      3162236    65709.662    1.5643067 
     479         4.79    307190.14   -104870.97   -104870.97    3979525.5    3874654.6            0      3155672    65716.934    1.5641336 
     480          4.8    306868.21   -105318.94   -105318.94    3975355.1    3870036.2            0    3148805.4    65724.194    1.5639608 
     481         4.81    306544.99   -105745.15   -105745.15    3971167.9    3865422.8            0      3141686    65731.442    1.5637884 
     482         4.82    306220.49   -106150.31   -106150.31    3966964.1    3860813.8            0    3134680.4    65738.679    1.5636162 
     483         4.83    305894.89   -106536.04   -106536.04    3962746.1    3856210.1            0    3128322.7    65745.903    1.5634444 
     484         4.84    305568.49   -106907.09   -106907.09    3958517.7    3851610.6            0    3122669.8    65753.116    1.5632729 
     485         4.85    305241.43   -107265.74   -107265.74    3954280.8      3847015            0    3117076.3    65760.317    1.5631017 
     486         4.86    304913.75   -107610.68   -107610.68    3950035.8    3842425.1            0    3111900.6    65767.507    1.5629309 
     487         4.87    304585.63   -107945.63   -107945.63    3945785.2    3837839.6            0    3107915.7    65774.684    1.5627603 
     488         4.88    304257.39   -108274.34   -108274.34    3941532.9    3833258.6            0    3104835.3    65781.849    1.5625901 
     489         4.89     303929.2   -108599.95   -108599.95    3937281.4    3828681.4            0    3101907.1    65789.003    1.5624202 
     490          4.9    303601.08   -108922.02   -108922.02    3933030.6    3824108.6            0    3098424.7    65796.145    1.5622506 
     491         4.91    303273.04   -109240.67   -109240.67    3928781.1    3819540.4            0    3095068.8    65803.275    1.5620813 
     492         4.92    302945.21   -109557.09   -109557.09    3924534.2    3814977.1            0    3091566.4    65810.394    1.5619123 
     493         4.93    302617.56   -109871.37   -109871.37    3920289.6    3810418.2            0    3087163.6      65817.5    1.5617437 
     494         4.94    302289.97   -110181.33   -110181.33    3916045.7    3805864.4            0    3082392.7    65824.595    1.5615754 
     495         4.95    301962.44   -110487.66   -110487.66    3911802.8    3801315.1            0    3078153.6    65831.678    1.5614073 
     496         4.96    301635.14   -110792.67   -110792.67    3907562.7      3796770            0    3074374.3     65838.75    1.5612396 
     497         4.97     301308.2   -111097.54   -111097.54    3903327.4    3792229.8            0    3071191.6     65845.81    1.5610722 
     498         4.98    300981.88    -111405.9    -111405.9      3899100    3787694.1            0    3068867.4    65852.858    1.5609052 
     499         4.99    300656.56    -111721.9    -111721.9    3894885.6    3783163.7            0    3067699.6    65859.895    1.5607384 
     500            5    300332.57   -112051.13   -112051.13    3890688.5    3778637.4            0    3067352.8     65866.92    1.5605719 
     501         5.01    300010.07    -112395.5    -112395.5    3886510.6    3774115.1            0    3066822.4    65873.933    1.5604058 
     502         5.02    299688.93   -112753.65   -112753.65    3882350.4    3769596.7            0    3065506.3    65880.936    1.5602399 
     503         5.03    299368.97   -113123.86   -113123.86    3878205.4    3765081.5            0      3063539    65887.926    1.5600744 
     504         5.04    299050.14   -113503.39   -113503.39      3874075    3760571.7            0    3061700.7    65894.906    1.5599091 
     505         5.05    298732.63    -113895.5    -113895.5    3869961.8    3756066.3            0    3060463.9    65901.874    1.5597442 
     506         5.06    298416.85   -114305.56   -114305.56      3865871    3751565.5            0    3060923.1    65908.831    1.5595796 
     507         5.07     298103.4   -114743.11   -114743.11    3861810.5    3747067.4            0      3063677    65915.776    1.5594152 
     508         5.08    297792.85   -115214.67   -115214.67    3857787.4    3742572.7            0    3067977.5    65922.711    1.5592512 
     509         5.09    297485.45   -115724.45   -115724.45    3853805.2    3738080.8            0    3072642.9    65929.634    1.5590875 
     510          5.1    297181.18   -116270.82   -116270.82    3849863.5    3733592.7            0    3076637.9    65936.547     1.558924 
     511         5.11    296879.68   -116849.66   -116849.66    3845957.6      3729108            0    3079433.9    65943.449    1.5587608 
     512         5.12    296580.52   -117455.61   -117455.61    3842082.2    3724626.6            0      3081417     65950.34     1.558598 
     513         5.13    296283.48   -118084.55   -118084.55    3838234.1    3720149.6            0      3083371     65957.22    1.5584354 
     514         5.14    295988.56   -118736.71   -118736.71    3834413.5    3715676.8            0    3085596.6     65964.09    1.5582731 
     515         5.15    295695.85   -119415.11   -119415.11    3830621.6    3711206.5            0    3087939.3    65970.949    1.5581111 
     516         5.16    295405.41   -120118.72   -120118.72    3826859.1    3706740.4            0    3089976.7    65977.798    1.5579493 
     517         5.17    295117.32   -120850.27   -120850.27    3823126.9    3702276.7            0      3092294    65984.636    1.5577879 
     518         5.18    294831.79   -121612.01   -121612.01      3819428      3697816            0    3095556.3    65991.464    1.5576267 
     519         5.19    294549.06   -122406.41   -122406.41    3815765.4      3693359            0      3100278    65998.282    1.5574658 
     520          5.2    294269.31   -123237.63   -123237.63    3812141.4    3688903.7            0    3106478.8     66005.09    1.5573051 
     521         5.21    293992.47   -124102.97   -124102.97      3808555      3684452            0      3112648    66011.888    1.5571448 
     522         5.22    293718.11   -124999.07   -124999.07    3805000.8    3680001.7            0    3117617.1    66018.677    1.5569846 
     523         5.23    293445.65      -125915      -125915    3801471.2    3675556.2            0    3121233.6    66025.455    1.5568248 
     524         5.24    293174.67   -126847.28   -126847.28    3797960.7    3671113.4            0    3124122.2    66032.224    1.5566652 
     525         5.25    292904.97   -127792.89   -127792.89    3794466.9      3666674            0    3126467.6    66038.984    1.5565059 
     526         5.26    292636.51   -128751.32   -128751.32      3790989    3662237.7            0    3128524.1    66045.733    1.5563468 
     527         5.27    292369.26   -129721.56   -129721.56    3787526.9    3657805.4            0    3130223.8    66052.474     1.556188 
     528         5.28    292103.17   -130704.22   -130704.22    3784079.8    3653375.6            0    3131767.7    66059.205    1.5560294 
     529         5.29    291838.17   -131697.14   -131697.14    3780646.9    3648949.8            0    3133275.1    66065.927    1.5558711 
     530          5.3    291574.28   -132701.02   -132701.02    3777228.2    3644527.2            0      3134774    66072.641     1.555713 
     531         5.31     291311.5   -133717.47   -133717.47    3773824.1    3640106.6            0    3136376.2    66079.345    1.5555552 
     532         5.32     291049.8   -134743.91   -134743.91    3770433.9      3635690            0    3137885.3     66086.04    1.5553976 
     533         5.33    290789.11   -135780.61   -135780.61    3767056.7    3631276.1            0    3139114.2    66092.726    1.5552402 
     534         5.34    290529.27    -136825.3    -136825.3    3763690.6    3626865.3            0    3139892.5    66099.403    1.5550831 
     535         5.35    290270.19   -137876.52   -137876.52    3760334.3    3622457.8            0    3140189.1    66106.072    1.5549262 
     536         5.36     290011.8   -138933.15   -138933.15    3756986.9    3618053.8            0    3139979.4    66112.732    1.5547696 
     537         5.37    289754.08   -139994.59   -139994.59    3753648.3    3613653.7            0    3139437.1    66119.384    1.5546132 
     538         5.38    289497.04      -141062      -141062    3750318.5    3609256.5            0    3138686.1    66126.027     1.554457 
     539         5.39    289240.68   -142134.86   -142134.86    3746997.4    3604862.6            0    3137857.6    66132.662     1.554301 
     540          5.4    288985.02    -143213.3    -143213.3    3743685.4    3600472.1            0    3136871.3    66139.289    1.5541453 
     541         5.41    288730.08   -144298.18   -144298.18    3740382.8    3596084.6            0    3135409.7    66145.907    1.5539898 
     542         5.42     288475.8   -145388.23   -145388.23    3737088.7    3591700.5            0    3133803.7    66152.517    1.5538345 
     543         5.43    288222.01   -146480.93   -146480.93      3733801    3587320.1            0    3132312.8    66159.119    1.5536795 
     544         5.44    287968.53   -147574.57   -147574.57    3730517.3    3582942.7            0    3131193.5    66165.713    1.5535246 
     545         5.45    287715.26   -148667.22   -148667.22    3727236.3    3578569.1            0    3130563.2    66172.299      1.55337 
     546         5.46    287462.13   -149758.11   -149758.11    3723957.1      3574199            0    3130317.9    66178.877    1.5532156 
     547         5.47    287209.16   -150847.48   -150847.48    3720679.9    3569832.4            0    3130176.5    66185.448    1.5530614 
     548         5.48     286956.4   -151937.42   -151937.42    3717405.5    3565468.1            0    3129921.8     66192.01    1.5529074 
     549         5.49    286703.91   -153026.67   -153026.67    3714134.5    3561107.9            0    3129455.1    66198.565    1.5527537 
     550          5.5    286451.71   -154117.62   -154117.62    3710867.5    3556749.9            0    3128813.2    66205.112    1.5526001 
     551         5.51     286199.8   -155208.61   -155208.61    3707604.1    3552395.5            0    3127963.2    66211.652    1.5524468 
     552         5.52    285948.06   -156298.03   -156298.03    3704342.9    3548044.9            0    3126793.4    66218.185    1.5522936 
     553         5.53    285696.34   -157386.14   -157386.14    3701081.9    3543695.7            0    3125210.9     66224.71    1.5521407 
     554         5.54    285444.47   -158467.18   -158467.18      3697819    3539351.9            0    3123187.4    66231.227    1.5519879 
     555         5.55    285192.36   -159542.72   -159542.72    3694553.1    3535010.4            0    3120797.1    66237.738    1.5518354 
     556         5.56    284939.95   -160611.44   -160611.44    3691283.2    3530671.8            0    3118267.1    66244.241     1.551683 
     557         5.57    284687.22   -161670.86   -161670.86    3688009.2    3526338.4            0    3115687.3    66250.737    1.5515309 
     558         5.58     284434.2   -162722.98   -162722.98    3684731.4    3522008.5            0      3113070    66257.226    1.5513789 
     559         5.59    284180.92   -163768.29   -163768.29    3681450.3      3517682            0    3110475.1    66263.709    1.5512272 
[...]
    9867        98.67    3520.7392   -387492.14   -387492.14    45609.769   -341882.37            0    50228.406    80556.966    1.2759923 
    9868        98.68    3520.1402   -387499.17   -387499.17     45602.01   -341897.16            0    50149.648    80557.483    1.2759841 
    9869        98.69    3519.5556   -387506.72   -387506.72    45594.437   -341912.28            0    50051.406        80558    1.2759759 
    9870         98.7    3518.9878   -387514.24   -387514.24     45587.08   -341927.16            0    49922.609    80558.517    1.2759677 
    9871        98.71    3518.4409   -387522.07   -387522.07    45579.996   -341942.07            0    49622.034    80559.033    1.2759595 
    9872        98.72    3517.9166    -387529.8    -387529.8    45573.204   -341956.59            0     49513.72     80559.55    1.2759513 
    9873        98.73    3517.4144   -387537.94   -387537.94    45566.698   -341971.24            0     49445.42    80560.067    1.2759432 
    9874        98.74     3516.935   -387546.58   -387546.58    45560.487   -341986.09            0    49357.426    80560.584     1.275935 
    9875        98.75    3516.4764   -387555.04   -387555.04    45554.547   -342000.49            0    49436.915    80561.101    1.2759268 
    9876        98.76    3516.0379   -387564.15   -387564.15    45548.866   -342015.28            0    49265.818    80561.617    1.2759186 
    9877        98.77    3515.6198   -387573.43   -387573.43    45543.449   -342029.98            0    49193.927    80562.134    1.2759104 
    9878        98.78    3515.2186   -387582.92   -387582.92    45538.252   -342044.66            0    49105.455    80562.651    1.2759022 
    9879        98.79    3514.8308   -387592.43   -387592.43    45533.229    -342059.2            0     49025.48    80563.168     1.275894 
    9880         98.8    3514.4522   -387602.13   -387602.13    45528.325   -342073.81            0     48950.87    80563.684    1.2758859 
    9881        98.81    3514.0791   -387612.04   -387612.04     45523.49   -342088.55            0    48969.708    80564.201    1.2758777 
    9882        98.82    3513.7079   -387621.89   -387621.89    45518.682   -342103.21            0    48999.704    80564.718    1.2758695 
    9883        98.83    3513.3346   -387631.56   -387631.56    45513.846   -342117.72            0     48998.65    80565.234    1.2758613 
    9884        98.84    3512.9555   -387641.45   -387641.45    45508.935   -342132.51            0    48970.342    80565.751    1.2758531 
    9885        98.85     3512.571   -387651.13   -387651.13    45503.954   -342147.18            0    48985.229    80566.268     1.275845 
    9886        98.86    3512.1821   -387660.69   -387660.69    45498.916   -342161.78            0    49026.206    80566.784    1.2758368 
    9887        98.87    3511.7881   -387670.41   -387670.41    45493.811    -342176.6            0    49048.691    80567.301    1.2758286 
    9888        98.88      3511.39   -387679.86   -387679.86    45488.654   -342191.21            0     49045.73    80567.817    1.2758204 
    9889        98.89     3510.987   -387689.48   -387689.48    45483.434   -342206.04            0    49043.045    80568.334    1.2758122 
    9890         98.9    3510.5774    -387698.7    -387698.7    45478.127   -342220.57            0    49013.752     80568.85    1.2758041 
    9891        98.91    3510.1632   -387707.98   -387707.98    45472.762   -342235.22            0    48950.476    80569.367    1.2757959 
    9892        98.92    3509.7447   -387717.31   -387717.31     45467.34   -342249.97            0    48907.733    80569.884    1.2757877 
    9893        98.93    3509.3204    -387726.6    -387726.6    45461.843   -342264.75            0    48881.294      80570.4    1.2757795 
    9894        98.94    3508.8904   -387735.66   -387735.66    45456.273   -342279.38            0    48920.532    80570.917    1.2757713 
    9895        98.95    3508.4556   -387744.71   -387744.71    45450.641   -342294.07            0     48931.61    80571.433    1.2757632 
    9896        98.96    3508.0184    -387753.8    -387753.8    45444.977   -342308.82            0    48919.665    80571.949     1.275755 
    9897        98.97      3507.58    -387762.9    -387762.9    45439.298    -342323.6            0    48869.809    80572.466    1.2757468 
    9898        98.98    3507.1416   -387771.81   -387771.81    45433.619    -342338.2            0    48852.963    80572.982    1.2757386 
    9899        98.99    3506.7047   -387780.66   -387780.66    45427.958    -342352.7            0    48835.175    80573.499    1.2757304 
    9900           99    3506.2699   -387789.51   -387789.51    45422.326   -342367.18            0    48835.053    80574.015    1.2757223 
    9901        99.01    3505.8365    -387798.6    -387798.6    45416.712   -342381.89            0    48809.618    80574.531    1.2757141 
    9902        99.02    3505.4042   -387807.99   -387807.99    45411.111   -342396.87            0    48749.691    80575.048    1.2757059 
    9903        99.03     3504.975   -387816.88   -387816.88     45405.55   -342411.33            0    48771.818    80575.564    1.2756977 
    9904        99.04    3504.5494   -387825.76   -387825.76    45400.037   -342425.72            0    48814.039     80576.08    1.2756896 
    9905        99.05    3504.1276      -387835      -387835    45394.573   -342440.42            0    48839.824    80576.597    1.2756814 
    9906        99.06    3503.7097   -387844.39   -387844.39     45389.16   -342455.23            0    48859.559    80577.113    1.2756732 
    9907        99.07    3503.2951   -387853.87   -387853.87    45383.789   -342470.08            0    48916.721    80577.629    1.2756651 
    9908        99.08    3502.8817   -387863.04   -387863.04    45378.433   -342484.61            0    49054.765    80578.146    1.2756569 
    9909        99.09    3502.4724   -387872.41   -387872.41     45373.13   -342499.27            0     48941.66    80578.662    1.2756487 
    9910         99.1    3502.0678    -387881.7    -387881.7    45367.889   -342513.81            0    48962.811    80579.178    1.2756405 
    9911        99.11    3501.6632   -387891.07   -387891.07    45362.648   -342528.42            0    49039.298    80579.694    1.2756324 
    9912        99.12     3501.257   -387900.29   -387900.29    45357.385   -342542.91            0    49078.105     80580.21    1.2756242 
    9913        99.13    3500.8473   -387909.52   -387909.52    45352.078   -342557.45            0    49142.849    80580.727     1.275616 
    9914        99.14    3500.4342    -387918.7    -387918.7    45346.727   -342571.98            0    49231.033    80581.243    1.2756078 
    9915        99.15    3500.0177    -387927.7    -387927.7     45341.33   -342586.37            0    49269.775    80581.759    1.2755997 
    9916        99.16    3499.5971   -387936.83   -387936.83    45335.882   -342600.95            0    49338.347    80582.275    1.2755915 
    9917        99.17    3499.1717      -387946      -387946    45330.372   -342615.63            0    49388.261    80582.791    1.2755833 
    9918        99.18    3498.7408   -387954.94   -387954.94    45324.789   -342630.15            0    49471.477    80583.307    1.2755752 
    9919        99.19    3498.3028   -387963.88   -387963.88    45319.115   -342644.76            0    49541.423    80583.824     1.275567 
    9920         99.2    3497.8573   -387972.69   -387972.69    45313.343   -342659.35            0    49595.615     80584.34    1.2755588 
    9921        99.21    3497.4055   -387981.83   -387981.83    45307.491   -342674.34            0    49630.418    80584.856    1.2755507 
    9922        99.22    3496.9477   -387990.96   -387990.96     45301.56    -342689.4            0    49599.136    80585.372    1.2755425 
    9923        99.23    3496.4842   -387999.36   -387999.36    45295.555   -342703.81            0    49624.716    80585.888    1.2755343 
    9924        99.24    3496.0156   -388008.02   -388008.02    45289.485   -342718.53            0    49646.245    80586.404    1.2755262 
    9925        99.25    3495.5428   -388016.27   -388016.27    45283.361   -342732.91            0    49704.559     80586.92     1.275518 
    9926        99.26    3495.0669   -388024.46   -388024.46    45277.195   -342747.26            0     49744.62    80587.436    1.2755098 
    9927        99.27    3494.5873   -388032.83   -388032.83    45270.982   -342761.85            0    49794.871    80587.952    1.2755016 
    9928        99.28    3494.1031   -388041.13   -388041.13     45264.71   -342776.42            0    49711.206    80588.468    1.2754935 
    9929        99.29    3493.6166   -388049.42   -388049.42    45258.407   -342791.01            0    49638.932    80588.984    1.2754853 
    9930         99.3    3493.1311   -388057.65   -388057.65    45252.118   -342805.54            0    49607.598      80589.5    1.2754771 
    9931        99.31    3492.6471   -388065.82   -388065.82    45245.848   -342819.98            0    49716.594    80590.016     1.275469 
    9932        99.32    3492.1656    -388074.2    -388074.2     45239.61   -342834.59            0    49700.069    80590.532    1.2754608 
    9933        99.33    3491.6881   -388082.77   -388082.77    45233.425   -342849.35            0    49667.345    80591.048    1.2754526 
    9934        99.34    3491.2131   -388091.11   -388091.11    45227.271   -342863.84            0    49553.031    80591.564    1.2754445 
    9935        99.35    3490.7407   -388099.38   -388099.38    45221.151   -342878.23            0    49567.505    80592.081    1.2754363 
    9936        99.36    3490.2725   -388107.79   -388107.79    45215.086    -342892.7            0    49551.449    80592.597    1.2754281 
    9937        99.37    3489.8085   -388116.32   -388116.32    45209.075   -342907.25            0    49520.472    80593.113      1.27542 
    9938        99.38    3489.3485   -388124.86   -388124.86    45203.116   -342921.74            0    49483.985    80593.629    1.2754118 
    9939        99.39    3488.8922   -388133.51   -388133.51    45197.205    -342936.3            0    49470.041    80594.145    1.2754036 
    9940         99.4    3488.4393   -388142.29   -388142.29    45191.337   -342950.95            0    49413.988     80594.66    1.2753955 
    9941        99.41    3487.9895   -388151.01   -388151.01    45185.511    -342965.5            0    49385.155    80595.176    1.2753873 
    9942        99.42    3487.5426   -388159.76   -388159.76    45179.721   -342980.04            0    49373.856    80595.692    1.2753792 
    9943        99.43    3487.0986   -388168.73   -388168.73    45173.969   -342994.77            0    49343.919    80596.208     1.275371 
    9944        99.44    3486.6572   -388177.64   -388177.64    45168.251   -343009.39            0    49303.516    80596.724    1.2753628 
    9945        99.45    3486.2182   -388186.53   -388186.53    45162.564   -343023.96            0    49282.021     80597.24    1.2753547 
    9946        99.46    3485.7812   -388195.25   -388195.25    45156.903   -343038.34            0     49255.88    80597.756    1.2753465 
    9947        99.47    3485.3448   -388204.02   -388204.02     45151.25   -343052.77            0    49263.106    80598.272    1.2753383 
    9948        99.48    3484.9087   -388212.88   -388212.88      45145.6   -343067.28            0    49229.464    80598.788    1.2753302 
    9949        99.49    3484.4741   -388221.76   -388221.76     45139.97   -343081.79            0    49180.529    80599.304     1.275322 
    9950         99.5     3484.041   -388230.58   -388230.58     45134.36   -343096.22            0    49110.584     80599.82    1.2753138 
    9951        99.51    3483.6082    -388239.5    -388239.5    45128.753   -343110.75            0    49014.057    80600.336    1.2753057 
    9952        99.52    3483.1746   -388248.24   -388248.24    45123.136   -343125.11            0    48945.015    80600.852    1.2752975 
    9953        99.53    3482.7404   -388257.07   -388257.07    45117.511   -343139.56            0    48939.587    80601.367    1.2752894 
    9954        99.54    3482.3062   -388265.74   -388265.74    45111.886   -343153.85            0    48852.521    80601.883    1.2752812 
    9955        99.55    3481.8746    -388274.4    -388274.4    45106.295    -343168.1            0    48817.137    80602.399     1.275273 
    9956        99.56    3481.4455   -388283.15   -388283.15    45100.736   -343182.42            0    48757.228    80602.915    1.2752649 
    9957        99.57    3481.0164   -388292.11   -388292.11    45095.176   -343196.93            0    48629.175    80603.431    1.2752567 
    9958        99.58    3480.5868   -388300.87   -388300.87    45089.612   -343211.26            0    48516.362    80603.946    1.2752486 
    9959        99.59    3480.1571   -388309.81   -388309.81    45084.045   -343225.77            0    48395.844    80604.462    1.2752404 
    9960         99.6    3479.7273   -388318.43   -388318.43    45078.476   -343239.95            0    48321.059    80604.978    1.2752322 
    9961        99.61    3479.2968   -388327.12   -388327.12      45072.9   -343254.22            0    48238.268    80605.494    1.2752241 
    9962        99.62    3478.8653   -388335.93   -388335.93     45067.31   -343268.62            0    48085.908    80606.009    1.2752159 
    9963        99.63    3478.4349   -388344.72   -388344.72    45061.735   -343282.99            0    47976.237    80606.525    1.2752078 
    9964        99.64    3478.0052   -388353.47   -388353.47    45056.167    -343297.3            0    47797.227    80607.041    1.2751996 
    9965        99.65    3477.5745      -388362      -388362    45050.589   -343311.41            0    47602.343    80607.556    1.2751914 
    9966        99.66    3477.1447   -388371.03   -388371.03     45045.02   -343326.01            0     47470.94    80608.072    1.2751833 
    9967        99.67    3476.7159      -388380      -388380    45039.466   -343340.53            0    47305.285    80608.587    1.2751751 
    9968        99.68    3476.2874   -388388.67   -388388.67    45033.914   -343354.75            0    47214.472    80609.103     1.275167 
    9969        99.69    3475.8595   -388397.63   -388397.63    45028.371   -343369.26            0    47047.347    80609.618    1.2751588 
    9970         99.7    3475.4328   -388406.36   -388406.36    45022.843   -343383.51            0    46963.907    80610.134    1.2751507 
    9971        99.71    3475.0075   -388415.03   -388415.03    45017.334   -343397.69            0    46836.843    80610.649    1.2751425 
    9972        99.72    3474.5839    -388424.1    -388424.1    45011.846   -343412.25            0    46642.684    80611.165    1.2751344 
    9973        99.73    3474.1612   -388433.18   -388433.18     45006.37   -343426.81            0    46501.292     80611.68    1.2751262 
    9974        99.74    3473.7398   -388442.09   -388442.09    45000.912   -343441.18            0    46394.617    80612.196    1.2751181 
    9975        99.75     3473.319   -388450.66   -388450.66     44995.46    -343455.2            0    46174.515    80612.711    1.2751099 
    9976        99.76     3472.899   -388459.54   -388459.54    44990.018   -343469.52            0    46011.938    80613.226    1.2751018 
    9977        99.77    3472.4797   -388468.58   -388468.58    44984.587   -343483.99            0    45868.656    80613.741    1.2750936 
    9978        99.78     3472.061   -388477.51   -388477.51    44979.163   -343498.34            0    45752.983    80614.256    1.2750855 
    9979        99.79    3471.6449   -388486.55   -388486.55    44973.773   -343512.78            0    45619.694    80614.772    1.2750773 
    9980         99.8     3471.233   -388496.17   -388496.17    44968.437   -343527.73            0    45486.793    80615.287    1.2750692 
    9981        99.81    3470.8264   -388505.11   -388505.11     44963.17   -343541.94            0    45374.889    80615.802     1.275061 
    9982        99.82    3470.4257   -388514.04   -388514.04    44957.979   -343556.06            0    45310.932    80616.317    1.2750529 
    9983        99.83     3470.031   -388523.13   -388523.13    44952.866   -343570.26            0    45141.882    80616.832    1.2750447 
    9984        99.84    3469.6432   -388532.35   -388532.35    44947.841   -343584.51            0    45030.026    80617.346    1.2750366 
    9985        99.85    3469.2626   -388541.41   -388541.41    44942.911    -343598.5            0    44969.594    80617.861    1.2750284 
    9986        99.86    3468.8889   -388550.99   -388550.99     44938.07   -343612.92            0    44861.285    80618.376    1.2750203 
    9987        99.87    3468.5238   -388560.84   -388560.84     44933.34    -343627.5            0    44784.456    80618.891    1.2750122 
    9988        99.88    3468.1695    -388570.7    -388570.7    44928.751   -343641.95            0    44648.995    80619.405     1.275004 
    9989        99.89    3467.8263   -388580.77   -388580.77    44924.304   -343656.47            0    44522.929     80619.92    1.2749959 
    9990         99.9    3467.4944   -388590.87   -388590.87    44920.004   -343670.86            0    44447.702    80620.434    1.2749877 
    9991        99.91    3467.1743   -388600.63   -388600.63    44915.858   -343684.78            0    44368.689    80620.949    1.2749796 
    9992        99.92     3466.866   -388611.09   -388611.09    44911.864   -343699.23            0    44251.188    80621.463    1.2749715 
    9993        99.93    3466.5701   -388621.63   -388621.63    44908.031    -343713.6            0    44177.099    80621.978    1.2749633 
    9994        99.94    3466.2867   -388632.51   -388632.51    44904.359   -343728.15            0    44053.029    80622.492    1.2749552 
    9995        99.95    3466.0135   -388643.05   -388643.05    44900.821   -343742.23            0    43896.346    80623.006    1.2749471 
    9996        99.96    3465.7515   -388653.91   -388653.91    44897.426   -343756.48            0    43814.662     80623.52    1.2749389 
    9997        99.97    3465.5045   -388664.89   -388664.89    44894.226   -343770.67            0    43597.388    80624.034    1.2749308 
    9998        99.98    3465.2709   -388676.18   -388676.18      44891.2   -343784.98            0    43527.048    80624.549    1.2749227 
    9999        99.99    3465.0481    -388687.5    -388687.5    44888.314   -343799.19            0     43504.28    80625.062    1.2749146 
   10000          100    3464.8424    -388699.2    -388699.2    44885.649   -343813.55            0     43410.24    80625.576    1.2749064 
Loop time of 10815.3 on 1 procs for 10000 steps with 4347 atoms

Performance: 0.001 ns/day, 30042.434 hours/ns, 0.925 timesteps/s
99.1% CPU use with 1 MPI tasks x 1 OpenMP threads

MPI task timing breakdown:
Section |  min time  |  avg time  |  max time  |%varavg| %total
---------------------------------------------------------------
Pair    | 9241.1     | 9241.1     | 9241.1     |   0.0 | 85.44
Neigh   | 146.87     | 146.87     | 146.87     |   0.0 |  1.36
Comm    | 1.6891     | 1.6891     | 1.6891     |   0.0 |  0.02
Output  | 5.5558     | 5.5558     | 5.5558     |   0.0 |  0.05
Modify  | 1419.7     | 1419.7     | 1419.7     |   0.0 | 13.13
Other   |            | 0.3655     |            |       |  0.00

Nlocal:    4347 ave 4347 max 4347 min
Histogram: 1 0 0 0 0 0 0 0 0 0
Nghost:    12776 ave 12776 max 12776 min
Histogram: 1 0 0 0 0 0 0 0 0 0
Neighs:    1.10463e+06 ave 1.10463e+06 max 1.10463e+06 min
Histogram: 1 0 0 0 0 0 0 0 0 0

Total # of neighbors = 1104628
Ave neighs/atom = 254.113
Neighbor list builds = 1000
Dangerous builds not checked

Please see the log.cite file for references relevant to this simulation

Total wall time: 3:00:18
