LAMMPS (19 Sep 2019)
OMP_NUM_THREADS environment is not set. Defaulting to 1 thread. (../comm.cpp:93)
  using 1 OpenMP thread(s) per MPI task
Reading data file ...
  orthogonal box = (-6.37931 -4.19611 -10.7845) to (6.5753 4.22201 10.6816)
  1 by 1 by 1 MPI processor grid
  reading atoms ...
  161 atoms
  read_data CPU = 0.0005598 secs
Replicating atoms ...
  orthogonal box = (-6.37931 -4.19611 -10.7845) to (32.4845 21.0582 53.6137)
  1 by 1 by 1 MPI processor grid
  4347 atoms
  replicate CPU = 0.0002726 secs
Reading potential file ffield.reax.FC with DATE: 2013-06-28
WARNING: Changed valency_val to valency_boc for X (../reaxc_ffield.cpp:315)
Neighbor list info ...
  update every 10 steps, delay 0 steps, check no
  max neighbors/atom: 2000, page size: 100000
  master list distance cutoff = 12
  ghost atom cutoff = 12
  binsize = 6, bins = 7 5 11
  2 neighbor lists, perpetual/occasional/extra = 2 0 0
  (1) pair reax/c, perpetual
      attributes: half, newton off, ghost
      pair build: half/bin/newtoff/ghost
      stencil: half/ghost/bin/3d/newtoff
      bin: standard
  (2) fix qeq/reax, perpetual, copy from (1)
      attributes: half, newton off, ghost
      pair build: copy
      stencil: none
      bin: none
Setting up Verlet run ...
  Unit style    : real
  Current step  : 0
  Time step     : 0.001
Per MPI rank memory allocation (min/avg/max) = 526.7 | 526.7 | 526.7 Mbytes
Step Time Temp E_pair PotEng KinEng TotEng E_bond Press Volume Density 
       0            0            0    5373839.2    5373839.2            0    5373839.2            0    2727659.5    63205.652    1.6262797 
       1        0.001   0.24806702      5373836      5373836    3.2136092    5373839.2            0    2727661.9    63205.652    1.6262797 
       2        0.002   0.99226698    5373826.3    5373826.3    12.854422    5373839.2            0    2727669.1    63205.652    1.6262796 
       3        0.003    2.2325965    5373810.2    5373810.2    28.922396    5373839.2            0      2727681    63205.653    1.6262796 
       4        0.004      3.96905    5373787.7    5373787.7    51.417457    5373839.1            0    2727697.6    63205.653    1.6262796 
       5        0.005    6.2016197    5373758.8    5373758.8    80.339505    5373839.1            0      2727719    63205.654    1.6262796 
       6        0.006    8.9302954    5373723.4    5373723.4    115.68841    5373839.1            0    2727745.2    63205.655    1.6262796 
       7        0.007    12.155065    5373681.6    5373681.6    157.46401      5373839            0    2727776.1    63205.656    1.6262795 
       8        0.008    15.875914    5373633.3    5373633.3    205.66612    5373838.9            0      2727811    63205.658    1.6262795 
       9        0.009    20.092825    5373578.6    5373578.6    260.29452    5373838.9            0    2727851.4    63205.659    1.6262795 
      10         0.01    24.805779    5373517.5    5373517.5    321.34896    5373838.8            0    2727896.6    63205.661    1.6262794 
      11        0.011    30.014756    5373449.9    5373449.9    388.82917    5373838.7            0    2727946.6    63205.663    1.6262794 
      12        0.012    35.719731    5373375.9    5373375.9    462.73484    5373838.6            0    2728001.3    63205.665    1.6262793 
      13        0.013    41.920679    5373295.5    5373295.5    543.06565    5373838.5            0    2728060.8    63205.667    1.6262793 
      14        0.014    48.617572    5373208.6    5373208.6    629.82122    5373838.4            0      2728125     63205.67    1.6262792 
      15        0.015     55.81038    5373115.3    5373115.3    723.00118    5373838.3            0      2728194    63205.673    1.6262791 
      16        0.016     63.49907    5373015.6    5373015.6    822.60508    5373838.2            0    2728267.7    63205.675     1.626279 
      17        0.017    71.683608    5372909.5    5372909.5     928.6325    5373838.1            0    2728346.2    63205.679     1.626279 
      18        0.018    80.363956    5372796.9    5372796.9    1041.0829      5373838            0    2728429.4    63205.682    1.6262789 
      19        0.019    89.540076    5372677.9    5372677.9    1159.9559    5373837.8            0    2728517.4    63205.685    1.6262788 
      20         0.02    99.211926    5372552.5    5372552.5    1285.2509    5373837.7            0    2728610.1    63205.689    1.6262787 
      21        0.021    109.37946    5372420.6    5372420.6    1416.9672    5373837.6            0    2728707.7    63205.693    1.6262786 
      22        0.022    120.04264    5372282.3    5372282.3    1555.1044    5373837.4            0    2728809.9    63205.696    1.6262785 
      23        0.023    131.20141    5372137.6    5372137.6    1699.6618    5373837.2            0    2728916.9    63205.701    1.6262784 
      24        0.024    142.85572    5371986.4    5371986.4    1850.6388    5373837.1            0    2729028.6    63205.705    1.6262783 
      25        0.025    155.00552    5371828.8    5371828.8    2008.0346    5373836.9            0    2729145.2    63205.709    1.6262782 
      26        0.026    167.65076    5371664.8    5371664.8    2171.8486    5373836.7            0    2729266.3    63205.714    1.6262781 
      27        0.027    180.79137    5371494.4    5371494.4      2342.08    5373836.5            0    2729392.4    63205.719    1.6262779 
      28        0.028     194.4273    5371317.6    5371317.6     2518.728    5373836.3            0    2729523.1    63205.724    1.6262778 
      29        0.029    208.55849    5371134.3    5371134.3    2701.7919    5373836.1            0    2729658.6    63205.729    1.6262777 
      30         0.03    223.18487    5370944.6    5370944.6    2891.2708    5373835.9            0    2729798.8    63205.735    1.6262775 
      31        0.031    238.30638    5370748.5    5370748.5    3087.1639    5373835.6            0    2729943.8     63205.74    1.6262774 
      32        0.032    253.92295    5370545.9    5370545.9    3289.4703    5373835.4            0    2730093.5    63205.746    1.6262772 
      33        0.033     270.0345      5370337      5370337    3498.1891    5373835.2            0      2730248    63205.752    1.6262771 
      34        0.034    286.64098    5370121.6    5370121.6    3713.3193    5373834.9            0    2730407.1    63205.758    1.6262769 
      35        0.035    303.74229    5369899.8    5369899.8      3934.86    5373834.7            0    2730571.1    63205.765    1.6262768 
      36        0.036    321.33836    5369671.6    5369671.6    4162.8101    5373834.4            0    2730739.7    63205.771    1.6262766 
      37        0.037    339.42912      5369437      5369437    4397.1687    5373834.2            0    2730913.2    63205.778    1.6262764 
      38        0.038    358.01449    5369195.9    5369195.9    4637.9347    5373833.9            0    2731091.3    63205.785    1.6262762 
      39        0.039    377.09437    5368948.5    5368948.5    4885.1069    5373833.6            0    2731274.2    63205.792    1.6262761 
      40         0.04    396.66868    5368694.6    5368694.6    5138.6843    5373833.3            0    2731461.8    63205.799    1.6262759 
      41        0.041    416.73734    5368434.3    5368434.3    5398.6658      5373833            0    2731654.2    63205.807    1.6262757 
      42        0.042    437.30025    5368167.7    5368167.7    5665.0501    5373832.7            0    2731851.2    63205.814    1.6262755 
      43        0.043    458.35733    5367894.6    5367894.6     5937.836    5373832.4            0      2732053    63205.822    1.6262753 
      44        0.044    479.90847    5367615.1    5367615.1    6217.0224    5373832.1            0    2732259.6     63205.83    1.6262751 
      45        0.045    501.95357    5367329.1    5367329.1     6502.608    5373831.7            0    2732470.8    63205.838    1.6262749 
      46        0.046    524.49255    5367036.8    5367036.8    6794.5914    5373831.4            0    2732686.8    63205.847    1.6262746 
      47        0.047    547.52529    5366738.1    5366738.1    7092.9714    5373831.1            0    2732907.6    63205.855    1.6262744 
      48        0.048     571.0517      5366433      5366433    7397.7466    5373830.7            0      2733133    63205.864    1.6262742 
      49        0.049    595.07167    5366121.5    5366121.5    7708.9157    5373830.4            0    2733363.1    63205.873     1.626274 
      50         0.05    619.58508    5365803.5    5365803.5    8026.4772      5373830            0      2733598    63205.882    1.6262737 
      51        0.051    644.59183    5365479.2    5365479.2    8350.4296    5373829.6            0    2733837.6    63205.891    1.6262735 
      52        0.052    670.09181    5365148.5    5365148.5    8680.7717    5373829.3            0    2734081.9    63205.901    1.6262733 
      53        0.053    696.08489    5364811.4    5364811.4    9017.5017    5373828.9            0    2734330.9     63205.91     1.626273 
      54        0.054    722.57098    5364467.9    5364467.9    9360.6183    5373828.5            0    2734584.6     63205.92    1.6262728 
      55        0.055    749.54993      5364118      5364118    9710.1199    5373828.1            0    2734843.1     63205.93    1.6262725 
      56        0.056    777.02163    5363761.7    5363761.7    10066.005    5373827.7            0    2735106.3     63205.94    1.6262722 
      57        0.057    804.98597      5363399      5363399    10428.272    5373827.3            0    2735374.1    63205.951     1.626272 
      58        0.058     833.4428    5363029.9    5363029.9    10796.918    5373826.8            0    2735646.7    63205.961    1.6262717 
      59        0.059    862.39201    5362654.5    5362654.5    11171.944    5373826.4            0      2735924    63205.972    1.6262714 
      60         0.06    891.83346    5362272.6    5362272.6    11553.346      5373826            0    2736205.9    63205.983    1.6262711 
      61        0.061    921.76701    5361884.4    5361884.4    11941.123    5373825.5            0    2736492.6    63205.994    1.6262708 
      62        0.062    952.19255    5361489.8    5361489.8    12335.274    5373825.1            0      2736784    63206.006    1.6262706 
      63        0.063    983.10991    5361088.8    5361088.8    12735.796    5373824.6            0      2737080    63206.017    1.6262703 
      64        0.064     1014.519    5360681.5    5360681.5    13142.688    5373824.1            0    2737380.8    63206.029      1.62627 
      65        0.065    1046.4196    5360267.7    5360267.7    13555.948    5373823.7            0    2737686.2    63206.041    1.6262697 
      66        0.066    1078.8116    5359847.6    5359847.6    13975.574    5373823.2            0    2737996.4    63206.053    1.6262693 
      67        0.067    1111.6949    5359421.1    5359421.1    14401.564    5373822.7            0    2738311.2    63206.065     1.626269 
      68        0.068    1145.0693    5358988.3    5358988.3    14833.916    5373822.2            0    2738630.7    63206.077    1.6262687 
      69        0.069    1178.9347    5358549.1    5358549.1    15272.628    5373821.7            0    2738954.9     63206.09    1.6262684 
      70         0.07    1213.2909    5358103.5    5358103.5    15717.699    5373821.2            0    2739283.8    63206.103    1.6262681 
      71        0.071    1248.1378    5357651.5    5357651.5    16169.126    5373820.7            0    2739617.3    63206.116    1.6262677 
      72        0.072    1283.4751    5357193.2    5357193.2    16626.907    5373820.1            0    2739955.6    63206.129    1.6262674 
      73        0.073    1319.3028    5356728.6    5356728.6    17091.041    5373819.6            0    2740298.5    63206.142     1.626267 
      74        0.074    1355.6207    5356257.5    5356257.5    17561.524    5373819.1            0    2740646.1    63206.156    1.6262667 
      75        0.075    1392.4286    5355780.2    5355780.2    18038.356    5373818.5            0    2740998.3     63206.17    1.6262663 
      76        0.076    1429.7263    5355296.4    5355296.4    18521.533      5373818            0    2741355.2    63206.184     1.626266 
      77        0.077    1467.5137    5354806.3    5354806.3    19011.054    5373817.4            0    2741716.8    63206.198    1.6262656 
      78        0.078    1505.7906    5354309.9    5354309.9    19506.916    5373816.8            0    2742083.1    63206.212    1.6262652 
      79        0.079    1544.5569    5353807.1    5353807.1    20009.118    5373816.3            0    2742453.9    63206.226    1.6262649 
      80         0.08    1583.8123      5353298      5353298    20517.656    5373815.7            0    2742829.5    63206.241    1.6262645 
      81        0.081    1623.5567    5352782.5    5352782.5    21032.529    5373815.1            0    2743209.7    63206.256    1.6262641 
      82        0.082      1663.79    5352260.7    5352260.7    21553.734    5373814.5            0    2743594.6    63206.271    1.6262637 
      83        0.083    1704.5118    5351732.6    5351732.6    22081.269    5373813.9            0    2743984.1    63206.286    1.6262633 
      84        0.084    1745.7221    5351198.1    5351198.1    22615.132    5373813.2            0    2744378.3    63206.302    1.6262629 
      85        0.085    1787.4206    5350657.3    5350657.3     23155.32    5373812.6            0    2744777.1    63206.317    1.6262625 
      86        0.086    1829.6072    5350110.2    5350110.2     23701.83      5373812            0    2745180.5    63206.333    1.6262621 
      87        0.087    1872.2817    5349556.7    5349556.7    24254.661    5373811.4            0    2745588.6    63206.349    1.6262617 
      88        0.088    1915.4438    5348996.9    5348996.9    24813.809    5373810.7            0    2746001.3    63206.365    1.6262613 
      89        0.089    1959.0934    5348430.8    5348430.8    25379.273    5373810.1            0    2746418.7    63206.381    1.6262609 
      90         0.09    2003.2304    5347858.3    5347858.3    25951.049    5373809.4            0    2746840.7    63206.398    1.6262605 
      91        0.091    2047.8544    5347279.6    5347279.6    26529.135    5373808.7            0    2747267.3    63206.414      1.62626 
      92        0.092    2092.9653    5346694.5    5346694.5    27113.529      5373808            0    2747698.5    63206.431    1.6262596 
      93        0.093    2138.5629    5346102.6    5346102.6    27704.228    5373806.8            0    2748127.4    63206.448    1.6262592 
      94        0.094    2184.6469    5345504.9    5345504.9    28301.228    5373806.1            0    2748567.8    63206.466    1.6262587 
      95        0.095    2231.2173    5344900.9    5344900.9    28904.528    5373805.4            0    2749012.9    63206.483    1.6262583 
      96        0.096    2278.2737    5344290.6    5344290.6    29514.125    5373804.7            0    2749462.6    63206.501    1.6262578 
      97        0.097    2325.8159      5343674      5343674    30130.016      5373804            0    2749916.9    63206.518    1.6262574 
      98        0.098    2373.8438    5343051.1    5343051.1    30752.198    5373803.3            0    2750375.8    63206.536    1.6262569 
      99        0.099    2422.3571    5342421.9    5342421.9    31380.668    5373802.5            0    2750839.3    63206.555    1.6262564 
     100          0.1    2471.3555    5341786.4    5341786.4    32015.424    5373801.8            0    2751307.5    63206.573     1.626256 
     101        0.101     2520.839    5341144.6    5341144.6    32656.462      5373801            0    2751780.2    63206.591    1.6262555 
     102        0.102    2570.8072    5340496.5    5340496.5     33303.78    5373800.3            0    2752257.5     63206.61     1.626255 
     103        0.103    2621.2599    5339842.2    5339842.2    33957.375    5373799.5            0    2752739.4    63206.629    1.6262545 
     104        0.104     2672.197    5339181.5    5339181.5    34617.244    5373798.8            0    2753225.9    63206.648     1.626254 
     105        0.105    2723.6181    5338514.6    5338514.6    35283.384      5373798            0    2753716.9    63206.667    1.6262535 
     106        0.106     2775.523    5337841.4    5337841.4    35955.792    5373797.2            0    2754212.6    63206.687     1.626253 
     107        0.107    2827.9115      5337162      5337162    36634.464    5373796.4            0    2754712.8    63206.707    1.6262525 
     108        0.108    2880.7834    5336476.2    5336476.2    37319.398    5373795.6            0    2755217.6    63206.726     1.626252 
     109        0.109    2934.1384    5335784.2    5335784.2    38010.591    5373794.8            0      2755727    63206.746    1.6262515 
     110         0.11    2987.9763      5335086      5335086     38708.04      5373794            0    2756240.9    63206.767     1.626251 
     111        0.111    3042.2969    5334381.4    5334381.4    39411.741    5373793.2            0    2756759.4    63206.787    1.6262504 
     112        0.112    3097.0998    5333670.2    5333670.2    40121.691    5373791.9            0    2757275.6    63206.808    1.6262499 
     113        0.113    3152.3849    5332953.2    5332953.2    40837.887    5373791.1            0    2757803.2    63206.828    1.6262494 
     114        0.114    3208.1519    5332229.8    5332229.8    41560.326    5373790.1            0    2758334.5    63206.849    1.6262488 
     115        0.115    3264.4005    5331500.3    5331500.3    42289.004    5373789.3            0    2758871.2    63206.871    1.6262483 
     116        0.116    3321.1305    5330764.5    5330764.5    43023.919    5373788.4            0    2759412.4    63206.892    1.6262478 
     117        0.117    3378.3416    5330022.5    5330022.5    43765.066    5373787.5            0    2759958.2    63206.913    1.6262472 
     118        0.118    3436.0336    5329274.2    5329274.2    44512.443    5373786.7            0    2760508.5    63206.935    1.6262466 
     119        0.119    3494.2063    5328519.7    5328519.7    45266.046    5373785.8            0    2761063.4    63206.957    1.6262461 
     120         0.12    3552.8592      5327759      5327759    46025.872    5373784.9            0    2761622.8    63206.979    1.6262455 
     121        0.121    3611.9923    5326992.1    5326992.1    46791.917      5373784            0    2762186.7    63207.001    1.6262449 
     122        0.122    3671.6052    5326218.9    5326218.9    47564.178    5373783.1            0    2762755.2    63207.024    1.6262444 
     123        0.123    3731.6976    5325439.5    5325439.5    48342.652    5373782.2            0    2763328.1    63207.046    1.6262438 
     124        0.124    3792.2693    5324653.9    5324653.9    49127.334    5373781.2            0    2763905.6    63207.069    1.6262432 
     125        0.125      3853.32    5323862.1    5323862.1    49918.221    5373780.3            0    2764487.6    63207.092    1.6262426 
     126        0.126    3914.8495    5323064.1    5323064.1    50715.311    5373779.4            0    2765074.1    63207.115     1.626242 
     127        0.127    3976.8573    5322259.8    5322259.8    51518.598    5373778.4            0    2765664.6    63207.139    1.6262414 
     128        0.128    4039.3434    5321448.8    5321448.8     52328.08    5373776.9            0    2766249.4    63207.162    1.6262408 
     129        0.129    4102.3073    5320632.2    5320632.2    53143.752    5373775.9            0    2766849.4    63207.186    1.6262402 
     130         0.13    4165.7488    5319809.3    5319809.3    53965.612      5373775            0    2767453.9     63207.21    1.6262396 
     131        0.131    4229.6677    5318980.3    5318980.3    54793.655      5373774            0    2768062.8    63207.234    1.6262389 
     132        0.132    4294.0635    5318145.1    5318145.1    55627.878      5373773            0    2768676.3    63207.258    1.6262383 
     133        0.133    4358.9361    5317303.7    5317303.7    56468.276      5373772            0    2769294.3    63207.283    1.6262377 
     134        0.134    4424.2852    5316456.1    5316456.1    57314.847      5373771            0    2769916.6    63207.308    1.6262371 
     135        0.135    4490.1104    5315602.4    5315602.4    58167.586      5373770            0    2770543.5    63207.332    1.6262364 
     136        0.136    4556.4114    5314742.5    5314742.5    59026.489      5373769            0    2771174.9    63207.357    1.6262358 
     137        0.137     4623.188    5313876.4    5313876.4    59891.553    5373767.9            0    2771810.6    63207.383    1.6262351 
     138        0.138    4690.4398    5313004.1    5313004.1    60762.773    5373766.9            0    2772450.9    63207.408    1.6262345 
     139        0.139    4758.1665    5312125.7    5312125.7    61640.146    5373765.9            0    2773095.6    63207.434    1.6262338 
     140         0.14    4826.3679    5311241.1    5311241.1    62523.668    5373764.8            0    2773744.8     63207.46    1.6262331 
     141        0.141    4895.0436    5310350.4    5310350.4    63413.334    5373763.7            0    2774398.3    63207.486    1.6262325 
     142        0.142    4964.1933    5309453.5    5309453.5    64309.141    5373762.7            0    2775056.4    63207.512    1.6262318 
     143        0.143    5033.8168    5308550.5    5308550.5    65211.085    5373761.6            0    2775718.8    63207.538    1.6262311 
     144        0.144    5103.9136    5307641.4    5307641.4    66119.161    5373760.5            0    2776385.8    63207.565    1.6262304 
     145        0.145    5174.4835    5306726.1    5306726.1    67033.366    5373759.4            0    2777057.1    63207.591    1.6262298 
     146        0.146    5245.5261    5305804.6    5305804.6    67953.695    5373758.3            0    2777732.8    63207.618    1.6262291 
     147        0.147    5317.0411    5304877.1    5304877.1    68880.144    5373757.2            0      2778413    63207.645    1.6262284 
     148        0.148    5389.0283    5303943.4    5303943.4    69812.709    5373756.1            0    2779097.6    63207.673    1.6262277 
     149        0.149    5461.4872    5303003.6    5303003.6    70751.385      5373755            0    2779785.7      63207.7     1.626227 
     150         0.15    5534.4176    5302057.7    5302057.7    71696.169    5373753.8            0    2780479.1    63207.728    1.6262262 
     151        0.151    5607.8191    5301105.6    5301105.6    72647.056    5373752.7            0    2781176.8    63207.756    1.6262255 
     152        0.152    5681.6914    5300147.5    5300147.5    73604.042    5373751.6            0      2781879    63207.784    1.6262248 
     153        0.153    5756.0341    5299183.3    5299183.3    74567.123    5373750.4            0    2782585.6    63207.812    1.6262241 
     154        0.154     5830.847    5298212.9    5298212.9    75536.293    5373749.2            0    2783296.5     63207.84    1.6262233 
     155        0.155    5906.1296    5297236.5    5297236.5     76511.55    5373748.1            0    2784011.8    63207.869    1.6262226 
     156        0.156    5981.8817      5296254      5296254    77492.888    5373746.9            0    2784731.5    63207.898    1.6262219 
     157        0.157    6058.1029    5295265.4    5295265.4    78480.303    5373745.7            0    2785455.6    63207.927    1.6262211 
     158        0.158    6134.7928    5294270.7    5294270.7     79473.79    5373744.5            0      2786184    63207.956    1.6262204 
     159        0.159    6211.9511    5293269.9    5293269.9    80473.345    5373743.3            0    2786916.8    63207.985    1.6262196 
     160         0.16    6289.5775    5292263.1    5292263.1    81478.964    5373742.1            0    2787653.9    63208.015    1.6262189 
     161        0.161    6367.6716    5291250.2    5291250.2    82490.641    5373740.8            0    2788395.4    63208.045    1.6262181 
     162        0.162     6446.233    5290231.2    5290231.2    83508.373    5373739.6            0    2789141.2    63208.075    1.6262173 
     163        0.163    6525.2614    5289206.2    5289206.2    84532.155    5373738.4            0    2789891.4    63208.105    1.6262165 
     164        0.164    6604.7565    5288175.1    5288175.1    85561.982    5373737.1            0    2790645.9    63208.135    1.6262158 
     165        0.165    6684.7178      5287138      5287138    86597.849    5373735.8            0    2791404.7    63208.166     1.626215 
     166        0.166    6765.1451    5286094.8    5286094.8    87639.751    5373734.6            0    2792167.9    63208.196    1.6262142 
     167        0.167    6846.0378    5285045.6    5285045.6    88687.685    5373733.3            0    2792935.4    63208.227    1.6262134 
     168        0.168    6927.3958    5283990.4    5283990.4    89741.645      5373732            0    2793707.1    63208.258    1.6262126 
     169        0.169    7009.2186    5282929.1    5282929.1    90801.627    5373730.7            0    2794483.2    63208.289    1.6262118 
     170         0.17    7091.5058    5281861.8    5281861.8    91867.625    5373729.4            0    2795263.6    63208.321     1.626211 
     171        0.171    7174.2571    5280788.5    5280788.5    92939.635    5373728.1            0    2796048.3    63208.352    1.6262102 
     172        0.172    7257.4721    5279709.1    5279709.1    94017.652    5373726.8            0    2796837.3    63208.384    1.6262094 
     173        0.173    7341.1504    5278623.8    5278623.8    95101.671    5373725.5            0    2797630.6    63208.416    1.6262085 
     174        0.174    7425.2917    5277532.4    5277532.4    96191.688    5373724.1            0    2798428.1    63208.448    1.6262077 
     175        0.175    7509.8955    5276435.1    5276435.1    97287.696    5373722.8            0    2799229.9    63208.481    1.6262069 
     176        0.176    7594.9615    5275331.7    5275331.7    98389.692    5373721.4            0      2800036    63208.513     1.626206 
     177        0.177    7680.4893    5274222.4    5274222.4     99497.67    5373720.1            0    2800846.4    63208.546    1.6262052 
     178        0.178    7766.4785    5273107.1    5273107.1    100611.63    5373718.7            0      2801661    63208.579    1.6262043 
     179        0.179    7852.9287    5271985.3    5271985.3    101731.55    5373716.9            0    2802473.5    63208.612    1.6262035 
     180         0.18    7939.8395      5270858      5270858    102857.45    5373715.5            0    2803296.6    63208.646    1.6262026 
     181        0.181    8027.2106    5269724.8    5269724.8    103989.31    5373714.1            0      2804124    63208.679    1.6262018 
     182        0.182    8115.0415    5268585.5    5268585.5    105127.12    5373712.7            0    2804955.5    63208.713    1.6262009 
     183        0.183    8203.3318    5267440.4    5267440.4    106270.89    5373711.2            0    2805791.4    63208.747       1.6262 
     184        0.184    8292.0812    5266289.2    5266289.2     107420.6    5373709.8            0    2806631.4    63208.781    1.6261992 
     185        0.185    8381.2892    5265132.1    5265132.1    108576.25    5373708.4            0    2807475.7    63208.815    1.6261983 
     186        0.186    8470.9554    5263969.1    5263969.1    109737.84    5373706.9            0    2808324.1     63208.85    1.6261974 
     187        0.187    8561.0795    5262800.1    5262800.1    110905.36    5373705.5            0    2809176.8    63208.884    1.6261965 
     188        0.188    8651.6609    5261625.2    5261625.2    112078.81      5373704            0    2810033.7    63208.919    1.6261956 
     189        0.189    8742.6994    5260444.4    5260444.4    113258.18    5373702.5            0    2810895.3    63208.954    1.6261947 
     190         0.19    8834.1945    5259257.6    5259257.6    114443.46    5373701.1            0    2811760.5    63208.989    1.6261938 
     191        0.191    8926.1457    5258064.9    5258064.9    115634.65    5373699.6            0      2812630    63209.025    1.6261929 
     192        0.192    9018.5528    5256866.3    5256866.3    116831.75    5373698.1            0    2813503.6     63209.06     1.626192 
     193        0.193    9111.4151    5255661.8    5255661.8    118034.74    5373696.6            0    2814381.4    63209.096     1.626191 
     194        0.194    9204.7324    5254451.4    5254451.4    119243.63      5373695            0    2815263.4    63209.132    1.6261901 
     195        0.195    9298.5042    5253235.1    5253235.1    120458.41    5373693.5            0    2816149.6    63209.168    1.6261892 
     196        0.196    9392.7301    5252012.9    5252012.9    121679.07      5373692            0    2817039.9    63209.205    1.6261883 
     197        0.197    9487.4096    5250784.8    5250784.8     122905.6    5373690.4            0    2817934.3    63209.241    1.6261873 
     198        0.198    9582.5423    5249550.9    5249550.9    124138.01    5373688.9            0    2818832.9    63209.278    1.6261864 
     199        0.199    9678.1279      5248311      5248311    125376.28    5373687.3            0    2819735.6    63209.315    1.6261854 
     200          0.2    9774.1658    5247065.3    5247065.3    126620.41    5373685.7            0    2820642.4    63209.352    1.6261845 
     201        0.201    9870.6556    5245813.7    5245813.7     127870.4    5373684.1            0    2821553.4    63209.389    1.6261835 
     202        0.202    9967.5969    5244556.3    5244556.3    129126.24    5373682.5            0    2822468.5    63209.427    1.6261825 
     203        0.203    10064.989      5243293      5243293    130387.91    5373680.9            0    2823387.7    63209.464    1.6261816 
     204        0.204    10162.832    5242023.9    5242023.9    131655.43    5373679.3            0      2824311    63209.502    1.6261806 
     205        0.205    10261.125    5240748.9    5240748.9    132928.78    5373677.7            0    2825238.4     63209.54    1.6261796 
     206        0.206    10359.868    5239468.1    5239468.1    134207.95    5373676.1            0    2826169.9    63209.579    1.6261786 
     207        0.207     10459.06    5238181.5    5238181.5    135492.95    5373674.4            0    2827105.5    63209.617    1.6261776 
     208        0.208    10558.701      5236889      5236889    136783.76    5373672.8            0    2828045.2    63209.656    1.6261766 
     209        0.209    10658.791    5235590.7    5235590.7    138080.37    5373671.1            0    2828988.9    63209.694    1.6261756 
     210         0.21    10759.328    5234286.3    5234286.3    139382.79    5373669.1            0    2829932.1    63209.733    1.6261746 
     211        0.211    10860.312    5232976.4    5232976.4    140691.01    5373667.4            0    2830883.9    63209.773    1.6261736 
     212        0.212    10961.744    5231660.7    5231660.7    142005.02    5373665.7            0    2831839.9    63209.812    1.6261726 
     213        0.213    11063.622    5230339.3    5230339.3    143324.81    5373664.1            0      2832801    63209.852    1.6261716 
     214        0.214    11165.947      5229012      5229012    144650.38    5373662.4            0      2833765    63209.891    1.6261706 
     215        0.215    11268.717      5227679      5227679    145981.72    5373660.7            0    2834733.1    63209.931    1.6261696 
     216        0.216    11371.932    5226339.7    5226339.7    147318.83    5373658.6            0    2835697.9    63209.972    1.6261685 
     217        0.217    11475.591    5224995.1    5224995.1     148661.7    5373656.8            0      2836674    63210.012    1.6261675 
     218        0.218    11579.695    5223644.7    5223644.7    150010.33    5373655.1            0    2837654.1    63210.052    1.6261664 
     219        0.219    11684.243    5222288.6    5222288.6     151364.7    5373653.3            0    2838638.2    63210.093    1.6261654 
     220         0.22    11789.234    5220926.7    5220926.7    152724.82    5373651.5            0    2839626.3    63210.134    1.6261643 
     221        0.221    11894.668    5219559.1    5219559.1    154090.67    5373649.7            0    2840618.5    63210.175    1.6261633 
     222        0.222    12000.544    5218185.7    5218185.7    155462.26      5373648            0    2841614.6    63210.217    1.6261622 
     223        0.223    12106.862    5216806.6    5216806.6    156839.56    5373646.1            0    2842614.6    63210.258    1.6261611 
     224        0.224    12213.622    5215421.7    5215421.7    158222.59    5373644.3            0    2843618.7      63210.3    1.6261601 
     225        0.225    12320.822    5214031.2    5214031.2    159611.32    5373642.5            0    2844626.8    63210.342     1.626159 
     226        0.226    12428.462    5212634.9    5212634.9    161005.76    5373640.7            0    2845638.8    63210.384    1.6261579 
     227        0.227    12536.543    5211232.9    5211232.9     162405.9    5373638.8            0    2846654.7    63210.426    1.6261568 
     228        0.228    12645.063    5209825.2    5209825.2    163811.74    5373636.9            0    2847673.7    63210.469    1.6261557 
     229        0.229    12754.022    5208411.8    5208411.8    165223.26      5373635            0    2848697.5    63210.511    1.6261546 
     230         0.23    12863.419    5206992.7    5206992.7    166640.45    5373633.1            0      2849725    63210.554    1.6261535 
     231        0.231    12973.254    5205567.9    5205567.9    168063.33    5373631.2            0    2850756.7    63210.597    1.6261524 
     232        0.232    13083.527    5204137.5    5204137.5    169491.86    5373629.3            0    2851792.3     63210.64    1.6261513 
     233        0.233    13194.237    5202701.4    5202701.4    170926.06    5373627.4            0    2852831.8    63210.684    1.6261502 
     234        0.234    13305.383    5201259.6    5201259.6    172365.92    5373625.5            0    2853875.2    63210.727    1.6261491 
     235        0.235    13416.965    5199812.1    5199812.1    173811.42    5373623.6            0    2854922.6    63210.771    1.6261479 
     236        0.236    13528.982    5198359.1    5198359.1    175262.56    5373621.6            0    2855973.8    63210.815    1.6261468 
     237        0.237    13641.434    5196900.3    5196900.3    176719.33    5373619.6            0    2857028.1    63210.859    1.6261457 
     238        0.238    13754.321    5195435.9    5195435.9    178181.74    5373617.6            0    2858087.1    63210.904    1.6261445 
     239        0.239    13867.642    5193965.9    5193965.9    179649.76    5373615.7            0      2859150    63210.948    1.6261434 
     240         0.24    13981.396    5192489.9    5192489.9     181123.4    5373613.3            0    2860211.7    63210.993    1.6261422 
     241        0.241    14095.583    5191008.7    5191008.7    182602.65    5373611.3            0    2861282.3    63211.038    1.6261411 
     242        0.242    14210.202    5189521.8    5189521.8    184087.49    5373609.3            0    2862356.7    63211.083    1.6261399 
     243        0.243    14325.253    5188029.3    5188029.3    185577.94    5373607.3            0      2863435    63211.129    1.6261388 
     244        0.244    14440.736    5186531.3    5186531.3    187073.97    5373605.2            0    2864517.1    63211.174    1.6261376 
     245        0.245    14556.649    5185027.6    5185027.6    188575.58    5373603.2            0      2865603     63211.22    1.6261364 
     246        0.246    14672.993    5183518.4    5183518.4    190082.76    5373601.1            0    2866692.8    63211.266    1.6261352 
     247        0.247    14789.766    5182003.5    5182003.5    191595.51    5373599.1            0    2867786.3    63211.312     1.626134 
     248        0.248    14906.969    5180483.1    5180483.1    193113.82      5373597            0    2868883.7    63211.358    1.6261328 
     249        0.249      15024.6    5178957.2    5178957.2    194637.69    5373594.9            0    2869984.9    63211.405    1.6261316 
     250         0.25    15142.659    5177425.7    5177425.7     196167.1    5373592.8            0    2871089.8    63211.451    1.6261304 
     251        0.251    15261.146    5175888.6    5175888.6    197702.05    5373590.6            0    2872198.6    63211.498    1.6261292 
     252        0.252    15380.061      5174346      5174346    199242.54    5373588.5            0    2873311.1    63211.545     1.626128 
     253        0.253    15499.401    5172797.8    5172797.8    200788.55    5373586.4            0    2874427.3    63211.593    1.6261268 
     254        0.254    15619.168    5171244.1    5171244.1    202340.08    5373584.1            0    2875546.2     63211.64    1.6261256 
     255        0.255     15739.36    5169684.9    5169684.9    203897.12      5373582            0      2876670    63211.688    1.6261244 
     256        0.256    15859.977    5168120.1    5168120.1    205459.67    5373579.8            0    2877797.5    63211.736    1.6261231 
     257        0.257    15981.019    5166549.9    5166549.9    207027.71    5373577.6            0    2878928.8    63211.784    1.6261219 
     258        0.258    16102.484    5164974.1    5164974.1    208601.25    5373575.4            0    2880063.8    63211.832    1.6261207 
     259        0.259    16224.373    5163392.9    5163392.9    210180.26    5373573.2            0    2881202.5    63211.881    1.6261194 
     260         0.26    16346.684    5161806.2    5161806.2    211764.76    5373570.9            0      2882345    63211.929    1.6261182 
     261        0.261    16469.417      5160214      5160214    213354.72    5373568.7            0    2883491.1    63211.978    1.6261169 
     262        0.262    16592.573    5158616.3    5158616.3    214950.15    5373566.4            0      2884641    63212.027    1.6261156 
     263        0.263    16716.149    5157013.1    5157013.1    216551.03    5373564.2            0    2885794.5    63212.076    1.6261144 
     264        0.264    16840.146    5155404.4    5155404.4    218157.36    5373561.7            0      2886950    63212.126    1.6261131 
     265        0.265    16964.562    5153790.3    5153790.3    219769.13    5373559.4            0    2888110.9    63212.175    1.6261118 
     266        0.266    17089.398    5152170.8    5152170.8    221386.33    5373557.1            0    2889275.5    63212.225    1.6261105 
     267        0.267    17214.653    5150545.8    5150545.8    223008.96    5373554.8            0    2890443.7    63212.275    1.6261093 
     268        0.268    17340.327    5148915.5    5148915.5       224637    5373552.5            0    2891615.6    63212.325     1.626108 
     269        0.269    17466.418    5147279.7    5147279.7    226270.46    5373550.1            0    2892791.1    63212.376    1.6261067 
     270         0.27    17592.926    5145638.4    5145638.4    227909.32    5373547.8            0    2893970.3    63212.426    1.6261054 
     271        0.271     17719.85    5143991.8    5143991.8    229553.58    5373545.4            0    2895153.1    63212.477    1.6261041 
     272        0.272    17847.191    5142339.8    5142339.8    231203.23      5373543            0    2896339.5    63212.528    1.6261027 
     273        0.273    17974.947    5140682.3    5140682.3    232858.25    5373540.6            0    2897529.5    63212.579    1.6261014 
     274        0.274    18103.118    5139019.5    5139019.5    234518.66    5373538.2            0    2898723.1    63212.631    1.6261001 
     275        0.275    18231.703    5137351.3    5137351.3    236184.42    5373535.7            0    2899920.4    63212.682    1.6260988 
     276        0.276    18360.701    5135677.7    5135677.7    237855.55    5373533.3            0    2901121.2    63212.734    1.6260975 
     277        0.277    18490.113    5133998.8    5133998.8    239532.03    5373530.8            0    2902325.6    63212.786    1.6260961 
     278        0.278    18619.938    5132314.5    5132314.5    241213.85    5373528.4            0    2903533.5    63212.838    1.6260948 
     279        0.279    18750.174    5130624.7    5130624.7    242901.01    5373525.7            0    2904742.5    63212.891    1.6260934 
     280         0.28    18880.822    5128929.7    5128929.7     244593.5    5373523.2            0    2905957.6    63212.943    1.6260921 
     281        0.281     19011.88    5127229.4    5127229.4    246291.31    5373520.7            0    2907176.2    63212.996    1.6260907 
     282        0.282    19143.349    5125523.8    5125523.8    247994.43    5373518.2            0    2908398.4    63213.049    1.6260894 
     283        0.283    19275.227    5123812.8    5123812.8    249702.86    5373515.6            0    2909624.1    63213.102     1.626088 
     284        0.284    19407.514    5122096.5    5122096.5    251416.59    5373513.1            0    2910853.3    63213.155    1.6260866 
     285        0.285    19540.209    5120374.9    5120374.9     253135.6    5373510.5            0      2912080    63213.209    1.6260852 
     286        0.286    19673.312      5118648      5118648     254859.9    5373507.9            0    2913316.3    63213.263    1.6260839 
     287        0.287    19806.823    5116915.8    5116915.8    256589.47    5373505.3            0      2914556    63213.316    1.6260825 
     288        0.288     19940.74    5115178.4    5115178.4    258324.31    5373502.7            0    2915799.3    63213.371    1.6260811 
     289        0.289    20075.062    5113435.7    5113435.7    260064.41    5373500.1            0      2917046    63213.425    1.6260797 
     290         0.29    20209.791    5111687.7    5111687.7    261809.76    5373497.4            0    2918296.2    63213.479    1.6260783 
     291        0.291    20344.924    5109934.4    5109934.4    263560.36    5373494.8            0    2919549.9    63213.534    1.6260769 
     292        0.292    20480.461    5108175.9    5108175.9    265316.19    5373492.1            0      2920807    63213.589    1.6260755 
     293        0.293    20616.402    5106412.1    5106412.1    267077.25    5373489.4            0    2922067.6    63213.644     1.626074 
     294        0.294    20752.745    5104643.2    5104643.2    268843.52    5373486.7            0    2923331.6    63213.699    1.6260726 
     295        0.295    20889.491    5102868.9    5102868.9    270615.01      5373484            0      2924580    63213.755    1.6260712 
     296        0.296    21026.639    5101089.5    5101089.5     272391.7    5373481.2            0    2925850.9    63213.811    1.6260698 
     297        0.297    21164.187    5099304.4    5099304.4    274173.59      5373478            0    2927118.7    63213.867    1.6260683 
     298        0.298    21302.136    5097514.6    5097514.6    275960.67    5373475.2            0    2928396.4    63213.923    1.6260669 
     299        0.299    21440.485    5095719.5    5095719.5    277752.92    5373472.5            0    2929677.5    63213.979    1.6260654 
     300          0.3    21579.233    5093919.3    5093919.3    279550.35    5373469.7            0      2930962    63214.035     1.626064 
     301        0.301     21718.38    5092113.9    5092113.9    281352.94    5373466.8            0    2932249.9    63214.092    1.6260625 
     302        0.302    21857.925    5090303.3    5090303.3    283160.68      5373464            0    2933541.1    63214.149    1.6260611 
     303        0.303    21997.867    5088487.6    5088487.6    284973.58    5373461.2            0    2934835.8    63214.206    1.6260596 
     304        0.304    22138.206    5086666.7    5086666.7    286791.61    5373458.3            0    2936133.7    63214.263    1.6260581 
     305        0.305    22278.941    5084840.6    5084840.6    288614.77    5373455.4            0      2937435    63214.321    1.6260566 
     306        0.306    22420.071    5083009.4    5083009.4    290443.06    5373452.5            0    2938739.8    63214.379    1.6260551 
     307        0.307    22561.596    5081173.1    5081173.1    292276.46    5373449.6            0    2940047.7    63214.436    1.6260537 
     308        0.308    22703.515    5079331.7    5079331.7    294114.97    5373446.7            0      2941359    63214.494    1.6260522 
     309        0.309    22845.828    5077485.1    5077485.1    295958.57    5373443.7            0    2942673.6    63214.553    1.6260507 
     310         0.31    22988.534    5075633.5    5075633.5    297807.27    5373440.7            0    2943991.6    63214.611    1.6260492 
     311        0.311    23131.632    5073776.7    5073776.7    299661.05    5373437.8            0    2945312.8     63214.67    1.6260477 
     312        0.312    23275.121    5071914.9    5071914.9     301519.9    5373434.8            0    2946637.3    63214.729    1.6260461 
     313        0.313    23419.002    5070047.9    5070047.9    303383.81    5373431.7            0    2947965.1    63214.788    1.6260446 
     314        0.314    23563.273    5068175.9    5068175.9    305252.78    5373428.7            0    2949296.2    63214.847    1.6260431 
     315        0.315    23707.933    5066298.9    5066298.9     307126.8    5373425.7            0    2950630.5    63214.907    1.6260416 
     316        0.316    23852.983    5064416.3    5064416.3    309005.86    5373422.1            0    2951961.5    63214.966      1.62604 
     317        0.317    23998.421    5062529.1    5062529.1    310889.95      5373419            0    2953302.3    63215.026    1.6260385 
     318        0.318    24144.246    5060636.9    5060636.9    312779.06    5373415.9            0    2954646.4    63215.086    1.6260369 
     319        0.319    24290.459    5058739.6    5058739.6    314673.19    5373412.8            0    2955993.6    63215.146    1.6260354 
     320         0.32    24437.058    5056837.4    5056837.4    316572.32    5373409.7            0    2957344.1    63215.207    1.6260338 
     321        0.321    24584.043    5054930.1    5054930.1    318476.45    5373406.5            0    2958697.8    63215.268    1.6260323 
     322        0.322    24731.413    5053017.8    5053017.8    320385.57    5373403.3            0    2960054.7    63215.328    1.6260307 
     323        0.323    24879.167    5051100.5    5051100.5    322299.67    5373400.1            0    2961414.8    63215.389    1.6260291 
     324        0.324    25027.306    5049178.2    5049178.2    324218.74    5373396.9            0      2962778    63215.451    1.6260276 
     325        0.325    25175.827    5047250.9    5047250.9    326142.78    5373393.7            0    2964144.4    63215.512     1.626026 
     326        0.326    25324.731    5045318.7    5045318.7    328071.77    5373390.4            0      2965514    63215.574    1.6260244 
     327        0.327    25474.016    5043381.5    5043381.5     330005.7    5373387.2            0    2966886.7    63215.636    1.6260228 
     328        0.328    25623.683    5041439.3    5041439.3    331944.57    5373383.9            0    2968262.6    63215.698    1.6260212 
     329        0.329     25773.73    5039492.2    5039492.2    333888.37    5373380.6            0    2969641.6     63215.76    1.6260196 
     330         0.33    25924.157    5037540.2    5037540.2    335837.09    5373377.2            0    2971023.8    63215.822     1.626018 
     331        0.331    26074.962    5035583.2    5035583.2    337790.72    5373373.9            0      2972409    63215.885    1.6260164 
     332        0.332    26226.147    5033621.3    5033621.3    339749.25    5373370.5            0    2973797.4    63215.948    1.6260148 
     333        0.333    26377.709    5031654.5    5031654.5    341712.68    5373367.1            0    2975188.8    63216.011    1.6260132 
     334        0.334    26529.648    5029682.8    5029682.8    343680.99    5373363.7            0    2976583.5    63216.074    1.6260115 
     335        0.335    26681.963    5027706.1    5027706.1    345654.18    5373360.3            0    2977981.1    63216.138    1.6260099 
     336        0.336    26834.655    5025724.6    5025724.6    347632.23    5373356.9            0    2979381.8    63216.201    1.6260083 
     337        0.337    26987.721    5023738.3    5023738.3    349615.14    5373353.4            0    2980785.5    63216.265    1.6260066 
     338        0.338    27141.161      5021747      5021747     351602.9    5373349.9            0    2982192.3    63216.329     1.626005 
     339        0.339    27294.976    5019750.9    5019750.9    353595.51    5373346.4            0    2983602.2    63216.394    1.6260033 
     340         0.34    27449.163      5017750      5017750    355592.94    5373342.9            0    2985015.1    63216.458    1.6260017 
     341        0.341    27603.722    5015744.2    5015744.2    357595.19    5373339.3            0      2986431    63216.523        1.626 
     342        0.342    27758.653    5013733.5    5013733.5    359602.26    5373335.8            0    2987849.9    63216.588    1.6259983 
     343        0.343    27913.955    5011718.1    5011718.1    361614.14    5373332.2            0    2989271.8    63216.653    1.6259967 
     344        0.344    28069.627    5009697.8    5009697.8    363630.81    5373328.6            0    2990696.7    63216.718     1.625995 
     345        0.345    28225.669    5007672.7    5007672.7    365652.26    5373324.9            0    2992124.6    63216.783    1.6259933 
     346        0.346    28382.079    5005642.8    5005642.8     367678.5    5373321.3            0    2993555.5    63216.849    1.6259916 
     347        0.347    28538.858    5003607.9    5003607.9     369709.5    5373317.4            0      2994987    63216.915    1.6259899 
     348        0.348    28696.004    5001568.5    5001568.5    371745.26    5373313.7            0    2996423.8    63216.981    1.6259882 
     349        0.349    28853.516    4999524.2    4999524.2    373785.78      5373310            0    2997863.6    63217.047    1.6259865 
     350         0.35    29011.395    4997475.3    4997475.3    375831.03    5373306.3            0    2999306.3    63217.114    1.6259848 
     351        0.351    29169.639    4995421.5    4995421.5    377881.02    5373302.5            0    3000751.9    63217.181    1.6259831 
     352        0.352    29328.247      4993363      4993363    379935.73    5373298.7            0    3002200.5    63217.247    1.6259814 
     353        0.353     29487.22    4991299.8    4991299.8    381995.15    5373294.9            0    3003651.9    63217.315    1.6259796 
     354        0.354    29646.556    4989231.8    4989231.8    384059.28    5373291.1            0    3005106.3    63217.382    1.6259779 
     355        0.355    29806.254    4987159.2    4987159.2    386128.11    5373287.3            0    3006563.5    63217.449    1.6259762 
     356        0.356    29966.313    4985081.8    4985081.8    388201.62    5373283.5            0    3008024.5    63217.517    1.6259744 
     357        0.357    30126.734    4982999.4    4982999.4    390279.81    5373279.2            0    3009479.8    63217.585    1.6259727 
     358        0.358    30287.515    4980912.6    4980912.6    392362.66    5373275.2            0    3010945.7    63217.653    1.6259709 
     359        0.359    30448.656    4978820.7    4978820.7    394450.18    5373270.8            0    3012407.9    63217.721    1.6259692 
     360         0.36    30610.156    4976724.5    4976724.5    396542.34    5373266.9            0    3013879.5     63217.79    1.6259674 
     361        0.361    30772.014    4974623.7    4974623.7    398639.15    5373262.9            0    3015353.9    63217.859    1.6259656 
     362        0.362    30934.229    4972518.3    4972518.3    400740.58    5373258.9            0    3016831.1    63217.928    1.6259639 
     363        0.363    31096.801    4970408.2    4970408.2    402846.64    5373254.8            0    3018311.2    63217.997    1.6259621 
     364        0.364    31259.729    4968293.5    4968293.5    404957.31    5373250.8            0      3019794    63218.066    1.6259603 
     365        0.365    31423.013    4966174.1    4966174.1    407072.58    5373246.7            0    3021279.7    63218.136    1.6259585 
     366        0.366    31586.651    4964050.1    4964050.1    409192.44    5373242.6            0    3022768.1    63218.205    1.6259567 
     367        0.367    31750.643    4961921.6    4961921.6    411316.89    5373238.4            0    3024259.3    63218.275    1.6259549 
     368        0.368    31914.988    4959788.4    4959788.4    413445.92    5373234.3            0    3025753.3    63218.345    1.6259531 
     369        0.369    32079.685    4957650.6    4957650.6     415579.5    5373230.1            0    3027250.1    63218.416    1.6259513 
     370         0.37    32244.734    4955508.3    4955508.3    417717.65    5373225.9            0    3028749.5    63218.486    1.6259495 
     371        0.371    32410.134    4953361.3    4953361.3    419860.34    5373221.7            0    3030251.8    63218.557    1.6259477 
     372        0.372    32575.884    4951209.8    4951209.8    422007.57    5373217.4            0    3031756.7    63218.628    1.6259458 
     373        0.373    32741.984    4949053.8    4949053.8    424159.32    5373213.1            0    3033264.4    63218.699     1.625944 
     374        0.374    32908.432    4946893.2    4946893.2    426315.59    5373208.8            0    3034774.8    63218.771    1.6259422 
     375        0.375    33075.228    4944728.1    4944728.1    428476.37    5373204.5            0    3036287.9    63218.842    1.6259403 
     376        0.376    33242.372    4942558.5    4942558.5    430641.65    5373200.1            0    3037803.6    63218.914    1.6259385 
     377        0.377    33409.862    4940384.3    4940384.3    432811.41    5373195.7            0    3039322.1    63218.986    1.6259366 
     378        0.378    33577.698    4938205.6    4938205.6    434985.66    5373191.3            0    3040842.6    63219.058    1.6259348 
     379        0.379    33745.879    4936025.3    4936025.3    437164.38    5373189.7            0    3042363.7     63219.13    1.6259329 
     380         0.38    33914.404    4933837.6    4933837.6    439347.55    5373185.2            0    3043890.2    63219.203    1.6259311 
     381        0.381    34083.272    4931645.5    4931645.5    441535.18    5373180.7            0    3045419.2    63219.276    1.6259292 
     382        0.382    34252.484    4929448.9    4929448.9    443727.24    5373176.2            0    3046950.9    63219.349    1.6259273 
     383        0.383    34422.037    4927247.9    4927247.9    445923.74    5373171.6            0    3048485.3    63219.422    1.6259254 
     384        0.384    34591.932    4925042.4    4925042.4    448124.66    5373167.1            0    3050022.2    63219.496    1.6259235 
     385        0.385    34762.167    4922832.5    4922832.5    450329.99    5373162.4            0    3051561.7    63219.569    1.6259216 
     386        0.386    34932.743    4920618.1    4920618.1    452539.72    5373157.8            0    3053103.8    63219.643    1.6259197 
     387        0.387    35103.657    4918399.3    4918399.3    454753.85    5373153.1            0    3054648.1    63219.717    1.6259178 
     388        0.388    35274.909    4916176.1    4916176.1    456972.36    5373148.5            0    3056195.4    63219.791    1.6259159 
     389        0.389    35446.499    4913948.5    4913948.5    459195.23    5373143.7            0    3057745.2    63219.866     1.625914 
     390         0.39    35618.426    4911716.5    4911716.5    461422.48      5373139            0    3059297.6     63219.94    1.6259121 
     391        0.391    35790.689    4909480.2    4909480.2    463654.07    5373134.2            0    3060852.5    63220.015    1.6259102 
     392        0.392    35963.287    4907239.4    4907239.4    465890.01    5373129.4            0      3062410     63220.09    1.6259082 
     393        0.393    36136.219    4904994.3    4904994.3    468130.28    5373124.6            0      3063970    63220.166    1.6259063 
     394        0.394    36309.485    4902744.9    4902744.9    470374.88    5373119.7            0    3065532.5    63220.241    1.6259044 
     395        0.395    36483.085    4900491.1    4900491.1    472623.78    5373114.9            0    3067097.5    63220.317    1.6259024 
     396        0.396    36657.016    4898232.9    4898232.9       474877    5373109.9            0    3068656.7    63220.393    1.6259005 
     397        0.397    36831.279    4895973.3    4895973.3     477134.5    5373107.8            0    3070217.1    63220.469    1.6258985 
     398        0.398    37005.872    4893706.5    4893706.5    479396.29    5373102.8            0    3071789.5    63220.545    1.6258965 
     399        0.399    37180.796    4891435.4    4891435.4    481662.35    5373097.8            0    3073363.6    63220.622    1.6258946 
     400          0.4    37356.048    4889160.1    4889160.1    483932.68    5373092.7            0    3074940.9    63220.698    1.6258926 
     401        0.401    37531.629    4886880.4    4886880.4    486207.26    5373087.7            0    3076515.1    63220.775    1.6258906 
     402        0.402    37707.537    4884596.4    4884596.4    488486.08    5373082.5            0    3078096.6    63220.852    1.6258886 
     403        0.403    37883.773    4882307.9    4882307.9    490769.14      5373077            0    3079673.7     63220.93    1.6258866 
     404        0.404    38060.334    4880015.5    4880015.5    493056.42    5373071.9            0    3081260.8    63221.007    1.6258847 
     405        0.405     38237.22    4877718.7    4877718.7    495347.91    5373066.7            0      3082843    63221.085    1.6258827 
     406        0.406    38414.431    4875417.8    4875417.8    497643.61    5373061.4            0    3084434.9    63221.163    1.6258806 
     407        0.407    38591.966    4873112.7    4873112.7     499943.5    5373056.2            0    3086029.1    63221.241    1.6258786 
     408        0.408    38769.824    4870803.3    4870803.3    502247.58    5373050.9            0    3087618.7     63221.32    1.6258766 
     409        0.409    38948.004    4868489.7    4868489.7    504555.83    5373045.6            0    3089210.2    63221.398    1.6258746 
     410         0.41    39126.505      4866172      4866172    506868.24    5373040.2            0    3090811.5    63221.477    1.6258726 
     411        0.411    39305.327      4863850      4863850    509184.81    5373034.8            0    3092415.2    63221.556    1.6258705 
     412        0.412    39484.469    4861523.9    4861523.9    511505.52    5373029.4            0    3094021.2    63221.635    1.6258685 
     413        0.413    39663.929    4859193.6    4859193.6    513830.36      5373024            0    3095629.5    63221.715    1.6258665 
     414        0.414    39843.708    4856859.1    4856859.1    516159.32    5373018.5            0    3097240.1    63221.794    1.6258644 
     415        0.415    40023.805    4854520.6    4854520.6     518492.4      5373013            0      3098853    63221.874    1.6258624 
     416        0.416    40204.218    4852177.8    4852177.8    520829.58    5373007.4            0    3100468.2    63221.954    1.6258603 
     417        0.417    40384.947      4849831      4849831    523170.85    5373001.8            0    3102085.7    63222.035    1.6258582 
     418        0.418    40565.991      4847480      4847480    525516.21    5372996.2            0    3103705.4    63222.115    1.6258562 
     419        0.419    40747.349    4845124.9    4845124.9    527865.63    5372990.5            0    3105327.4    63222.196    1.6258541 
     420         0.42    40929.022    4842765.7    4842765.7    530219.12    5372984.8            0    3106951.6    63222.277     1.625852 
     421        0.421    41111.006    4840402.5    4840402.5    532576.66    5372979.1            0    3108578.1    63222.358    1.6258499 
     422        0.422    41293.303    4838035.1    4838035.1    534938.24    5372973.4            0    3110206.9    63222.439    1.6258478 
     423        0.423    41475.911    4835663.7    4835663.7    537303.85    5372967.5            0    3111837.4    63222.521    1.6258457 
     424        0.424    41658.829    4833288.2    4833288.2    539673.49    5372961.7            0    3113470.4    63222.602    1.6258436 
     425        0.425    41842.057    4830908.7    4830908.7    542047.13    5372955.8            0    3115105.8    63222.684    1.6258415 
     426        0.426    42025.593    4828525.2    4828525.2    544424.77    5372949.9            0    3116743.3    63222.767    1.6258394 
     427        0.427    42209.438    4826137.6    4826137.6     546806.4      5372944            0      3118383    63222.849    1.6258373 
     428        0.428    42393.589      4823746      4823746    549192.01      5372938            0    3120024.9    63222.931    1.6258352 
     429        0.429    42578.048    4821350.4    4821350.4    551581.59      5372932            0    3121668.9    63223.014     1.625833 
     430         0.43    42762.811    4818950.8    4818950.8    553975.13      5372926            0    3123315.2    63223.097    1.6258309 
     431        0.431     42947.88    4816547.3    4816547.3    556372.62    5372919.9            0    3124963.4     63223.18    1.6258288 
     432        0.432    43133.252    4814139.7    4814139.7    558774.04    5372913.8            0    3126613.9    63223.264    1.6258266 
     433        0.433    43318.927    4811728.2    4811728.2     561179.4    5372907.6            0    3128266.4    63223.348    1.6258245 
     434        0.434    43504.905    4809312.7    4809312.7    563588.67    5372901.4            0    3129921.1    63223.431    1.6258223 
     435        0.435    43691.185    4806893.3    4806893.3    566001.84    5372895.2            0    3131577.8    63223.515    1.6258202 
     436        0.436    43877.765      4804470      4804470    568418.91    5372888.9            0    3133236.2      63223.6     1.625818 
     437        0.437    44064.645    4802042.6    4802042.6    570839.87    5372882.5            0    3134895.9    63223.684    1.6258158 
     438        0.438    44251.824    4799611.4    4799611.4     573264.7    5372876.1            0    3136559.3    63223.769    1.6258136 
     439        0.439    44439.302    4797176.2    4797176.2     575693.4    5372869.6            0    3138222.9    63223.854    1.6258115 
     440         0.44    44627.077    4794737.3    4794737.3    578125.95    5372863.2            0      3139890    63223.939    1.6258093 
     441        0.441    44815.148    4792294.4    4792294.4    580562.34    5372856.7            0    3141558.6    63224.024    1.6258071 
     442        0.442    45003.516    4789847.6    4789847.6    583002.57    5372850.2            0    3143229.7     63224.11    1.6258049 
     443        0.443    45192.179      4787397      4787397    585446.62    5372843.6            0    3144902.8    63224.196    1.6258027 
     444        0.444    45381.135    4784942.6    4784942.6    587894.48      5372837            0    3146577.9    63224.281    1.6258005 
     445        0.445    45570.386    4782484.3    4782484.3    590346.14    5372830.4            0    3148257.6    63224.368    1.6257982 
     446        0.446    45759.929    4780022.2    4780022.2    592801.59    5372823.7            0    3149936.7    63224.454     1.625796 
     447        0.447    45949.764    4777556.2    4777556.2    595260.83      5372817            0    3151617.8    63224.541    1.6257938 
     448        0.448    46139.889    4775086.5    4775086.5    597723.83    5372810.3            0    3153300.8    63224.627    1.6257916 
     449        0.449    46330.305    4772612.9    4772612.9    600190.59    5372803.5            0    3154985.7    63224.714    1.6257893 
     450         0.45     46521.01    4770135.5    4770135.5     602661.1    5372796.6            0    3156675.4    63224.802    1.6257871 
     451        0.451    46712.004    4767654.4    4767654.4    605135.35    5372789.8            0    3158364.2    63224.889    1.6257848 
     452        0.452    46903.286    4765169.5    4765169.5    607613.33    5372782.8            0    3160054.8    63224.977    1.6257826 
     453        0.453    47094.854    4762680.8    4762680.8    610095.02    5372775.8            0    3161746.6    63225.065    1.6257803 
     454        0.454    47286.709    4760188.3    4760188.3    612580.42    5372768.7            0      3163440    63225.153    1.6257781 
     455        0.455    47478.848    4757692.1    4757692.1    615069.51    5372761.7            0    3165136.4    63225.241    1.6257758 
     456        0.456    47671.272    4755192.3    4755192.3    617562.29    5372754.6            0    3166834.7     63225.33    1.6257735 
     457        0.457     47863.98    4752688.7    4752688.7    620058.74    5372747.4            0    3168534.9    63225.418    1.6257712 
     458        0.458    48056.971    4750181.4    4750181.4    622558.85    5372740.2            0    3170228.3    63225.507    1.6257689 
     459        0.459    48250.243    4747670.4    4747670.4    625062.62      5372733            0    3171932.2    63225.597    1.6257666 
     460         0.46    48443.797    4745155.7    4745155.7    627570.03    5372725.7            0    3173637.9    63225.686    1.6257643 
     461        0.461     48637.63    4742637.4    4742637.4    630081.07    5372718.4            0      3175338    63225.775     1.625762 
     462        0.462    48831.743    4740114.4    4740114.4    632595.73    5372710.1            0    3177033.4    63225.865    1.6257597 
     463        0.463    49026.135    4737588.7    4737588.7    635113.99    5372702.7            0      3178738    63225.955    1.6257574 
     464        0.464    49220.805    4735059.4    4735059.4    637635.86    5372695.3            0      3180451    63226.046    1.6257551 
     465        0.465    49415.751    4732526.5    4732526.5    640161.31    5372687.8            0    3182165.7    63226.136    1.6257528 
     466        0.466    49610.974    4729989.9    4729989.9    642690.35    5372680.2            0    3183882.2    63226.227    1.6257504 
     467        0.467    49806.472    4727449.7    4727449.7    645222.94    5372672.6            0    3185600.4    63226.318    1.6257481 
     468        0.468    50002.244    4724905.9    4724905.9     647759.1      5372665            0    3187313.5    63226.409    1.6257458 
     469        0.469     50198.29    4722358.5    4722358.5    650298.79    5372657.3            0    3189027.6      63226.5    1.6257434 
     470         0.47    50394.609    4719807.6    4719807.6    652842.03    5372649.6            0    3190751.1    63226.591    1.6257411 
     471        0.471      50591.2      4717253      4717253    655388.78    5372641.8            0    3192469.3    63226.683    1.6257387 
     472        0.472    50788.061    4714694.9    4714694.9    657939.04      5372634            0    3194196.1    63226.775    1.6257363 
     473        0.473    50985.193    4712133.3    4712133.3    660492.81    5372626.1            0    3195924.8    63226.867     1.625734 
     474        0.474    51182.595    4709568.1    4709568.1    663050.07    5372618.2            0    3197655.1     63226.96    1.6257316 
     475        0.475    51380.265    4706999.4    4706999.4    665610.81    5372610.2            0      3199387    63227.052    1.6257292 
     476        0.476    51578.203    4704427.2    4704427.2    668175.01    5372602.2            0    3201120.7    63227.145    1.6257268 
     477        0.477    51776.408    4701851.4    4701851.4    670742.68    5372594.1            0    3202855.9    63227.238    1.6257244 
     478        0.478    51974.879    4699272.2    4699272.2    673313.79      5372586            0    3204592.5    63227.331     1.625722 
     479        0.479    52173.615    4696689.8    4696689.8    675888.34    5372578.2            0    3206336.8    63227.425    1.6257196 
     480         0.48    52372.616    4694103.6    4694103.6    678466.31    5372569.9            0      3208077    63227.519    1.6257172 
     481        0.481     52571.88      4691514      4691514     681047.7    5372561.7            0    3209818.8    63227.612    1.6257148 
     482        0.482    52771.407    4688920.9    4688920.9    683632.49    5372553.3            0    3211562.2    63227.707    1.6257124 
     483        0.483    52971.195    4686324.1    4686324.1    686220.67    5372544.8            0    3213304.6    63227.801      1.62571 
     484        0.484    53171.245    4683724.1    4683724.1    688812.24    5372536.3            0    3215051.2    63227.895    1.6257075 
     485        0.485    53371.555    4681120.7    4681120.7    691407.17    5372527.9            0    3216799.4     63227.99    1.6257051 
     486        0.486    53572.124    4678513.9    4678513.9    694005.47    5372519.3            0    3218549.1    63228.085    1.6257027 
     487        0.487    53772.952    4675903.6    4675903.6    696607.11    5372510.7            0    3220300.3     63228.18    1.6257002 
     488        0.488    53974.037      4673290      4673290    699212.09    5372502.1            0    3222053.1    63228.276    1.6256977 
     489        0.489     54175.38      4670673      4670673     701820.4    5372493.4            0    3223807.5    63228.371    1.6256953 
     490         0.49    54376.978    4668052.3    4668052.3    704432.02    5372484.3            0    3225555.7    63228.467    1.6256928 
     491        0.491    54578.831    4665428.5    4665428.5    707046.95    5372475.5            0      3227313    63228.563    1.6256904 
     492        0.492    54780.939    4662801.5    4662801.5    709665.17    5372466.6            0    3229071.9     63228.66    1.6256879 
     493        0.493      54983.3    4660171.1    4660171.1    712286.68    5372457.7            0    3230832.2    63228.756    1.6256854 
     494        0.494    55185.913    4657537.3    4657537.3    714911.46    5372448.8            0      3232594    63228.853    1.6256829 
     495        0.495    55388.778    4654900.3    4654900.3    717539.49    5372439.8            0    3234357.3     63228.95    1.6256804 
     496        0.496    55591.894    4652259.9    4652259.9    720170.78    5372430.7            0      3236122    63229.047    1.6256779 
     497        0.497     55795.26    4649616.2    4649616.2    722805.31    5372421.6            0    3237888.1    63229.144    1.6256754 
     498        0.498    55998.876    4646968.9    4646968.9    725443.06      5372412            0    3239648.4    63229.242    1.6256729 
     499        0.499    56202.739    4644318.7    4644318.7    728084.03    5372402.8            0    3241417.4     63229.34    1.6256704 
     500          0.5     56406.85    4641664.6    4641664.6    730728.21    5372392.8            0    3243175.9    63229.438    1.6256679 
     501        0.501    56611.208    4639007.9    4639007.9    733375.58    5372383.5            0    3244947.7    63229.536    1.6256653 
     502        0.502    56815.811      4636348      4636348    736026.13    5372374.1            0    3246720.9    63229.635    1.6256628 
     503        0.503    57020.659    4633684.8    4633684.8    738679.86    5372364.6            0    3248495.6    63229.733    1.6256603 
     504        0.504    57225.751    4631018.3    4631018.3    741336.74    5372355.1            0    3250271.5    63229.832    1.6256577 
     505        0.505    57431.086    4628348.7    4628348.7    743996.78    5372345.5            0    3252048.9    63229.931    1.6256552 
     506        0.506    57636.664    4625675.9    4625675.9    746659.96    5372335.9            0    3253827.6    63230.031    1.6256526 
     507        0.507    57842.483    4622999.6    4622999.6    749326.26    5372325.8            0      3255603     63230.13    1.6256501 
     508        0.508    58048.543    4620320.4    4620320.4    751995.68    5372316.1            0    3257384.4     63230.23    1.6256475 
     509        0.509    58254.842    4617638.1    4617638.1    754668.21    5372306.3            0      3259161     63230.33    1.6256449 
     510         0.51     58461.38    4614952.5    4614952.5    757343.83    5372296.4            0      3260945     63230.43    1.6256424 
     511        0.511    58668.157    4612263.6    4612263.6    760022.53    5372286.1            0    3262722.7    63230.531    1.6256398 
     512        0.512     58875.17    4609571.8    4609571.8    762704.31    5372276.1            0    3264509.3    63230.631    1.6256372 
     513        0.513     59082.42    4606876.9    4606876.9    765389.14      5372266            0    3266297.2    63230.732    1.6256346 
     514        0.514    59289.905    4604178.9    4604178.9    768077.03    5372255.9            0    3268086.3    63230.833     1.625632 
     515        0.515    59497.625    4601477.8    4601477.8    770767.96    5372245.7            0    3269876.7    63230.935    1.6256294 
     516        0.516    59705.578    4598773.2    4598773.2    773461.91    5372235.2            0    3271663.4    63231.036    1.6256268 
     517        0.517    59913.764      4596066      4596066    776158.88    5372224.8            0    3273456.3    63231.138    1.6256242 
     518        0.518    60122.183    4593355.6    4593355.6    778858.86    5372214.5            0    3275250.3     63231.24    1.6256215 
     519        0.519    60330.832    4590642.2    4590642.2    781561.83      5372204            0    3277045.6    63231.342    1.6256189 
     520         0.52    60539.712    4587925.7    4587925.7    784267.78    5372193.5            0    3278842.1    63231.445    1.6256163 
     521        0.521    60748.821    4585206.2    4585206.2     786976.7    5372182.9            0    3280638.6    63231.547    1.6256136 
     522        0.522    60958.159    4582483.6    4582483.6    789688.59    5372172.2            0    3282437.5     63231.65     1.625611 
     523        0.523    61167.724    4579758.1    4579758.1    792403.43    5372161.5            0    3284237.5    63231.753    1.6256083 
     524        0.524    61377.516    4577029.6    4577029.6     795121.2    5372150.8            0    3286038.7    63231.857    1.6256057 
     525        0.525    61587.534      4574298      4574298     797841.9    5372139.9            0      3287841     63231.96     1.625603 
     526        0.526    61797.777    4571563.5    4571563.5    800565.52      5372129            0    3289644.5    63232.064    1.6256004 
     527        0.527    62008.245      4568826      4568826    803292.04    5372118.1            0    3291449.1    63232.168    1.6255977 
     528        0.528    62218.936    4566085.6    4566085.6    806021.45      5372107            0    3293254.9    63232.272     1.625595 
     529        0.529    62429.849    4563342.2    4563342.2    808753.75      5372096            0    3295042.7    63232.377    1.6255923 
     530         0.53    62640.984    4560595.9    4560595.9    811488.92    5372084.8            0    3296850.6    63232.481    1.6255896 
     531        0.531     62852.34    4557846.6    4557846.6    814226.95    5372073.6            0    3298659.7    63232.586    1.6255869 
     532        0.532    63063.915    4555094.4    4555094.4    816967.82    5372062.3            0    3300469.8    63232.691    1.6255842 
     533        0.533     63275.71    4552339.4    4552339.4    819711.54    5372050.9            0      3302281    63232.797    1.6255815 
     534        0.534    63487.722    4549581.4    4549581.4    822458.08    5372039.5            0    3304093.2    63232.902    1.6255788 
     535        0.535    63699.952    4546820.2    4546820.2    825207.43    5372027.6            0    3305901.9    63233.008    1.6255761 
     536        0.536    63912.399    4544056.5    4544056.5    827959.59      5372016            0      3307716    63233.114    1.6255734 
     537        0.537    64125.061    4541289.9    4541289.9    830714.54    5372004.4            0    3309531.4     63233.22    1.6255706 
     538        0.538    64337.938    4538520.4    4538520.4    833472.28    5371992.7            0    3311347.7    63233.327    1.6255679 
     539        0.539    64551.028    4535748.1    4535748.1    836232.78    5371980.9            0    3313165.1    63233.433    1.6255652 
     540         0.54    64764.332      4532973      4532973    838996.04      5371969            0    3314983.4     63233.54    1.6255624 
     541        0.541    64977.847    4530195.1    4530195.1    841762.05    5371957.1            0    3316802.8    63233.647    1.6255597 
     542        0.542    65191.574      4527414      4527414     844530.8    5371944.8            0    3318618.5    63233.755    1.6255569 
     543        0.543    65405.511    4524630.5    4524630.5    847302.27    5371932.7            0    3320439.8    63233.862    1.6255541 
     544        0.544    65619.658    4521844.1    4521844.1    850076.45    5371920.6            0    3322262.1     63233.97    1.6255514 
     545        0.545    65834.013      4519055      4519055    852853.34    5371908.4            0    3324085.2    63234.078    1.6255486 
     546        0.546    66048.576    4516263.1    4516263.1    855632.92    5371896.1            0    3325909.3    63234.186    1.6255458 
     547        0.547    66263.346    4513468.5    4513468.5    858415.18    5371883.7            0    3327734.4    63234.295     1.625543 
     548        0.548    66478.322    4510671.1    4510671.1    861200.11    5371871.2            0    3329560.3    63234.403    1.6255402 
     549        0.549    66693.503      4507871      4507871    863987.69    5371858.7            0    3331387.1    63234.512    1.6255374 
     550         0.55    66908.889    4505068.2    4505068.2    866777.92    5371846.1            0    3333214.8    63234.621    1.6255346 
     551        0.551    67124.478    4502262.7    4502262.7    869570.79    5371833.5            0    3335043.4    63234.731    1.6255318 
     552        0.552    67340.269    4499454.4    4499454.4    872366.28    5371820.7            0    3336872.9     63234.84     1.625529 
     553        0.553    67556.262    4496643.3    4496643.3    875164.38    5371807.7            0    3338700.6     63234.95    1.6255262 
     554        0.554    67772.456    4493829.7    4493829.7    877965.09    5371794.8            0    3340531.7     63235.06    1.6255233 
     555        0.555    67988.849    4491013.4    4491013.4    880768.38    5371781.8            0    3342361.6     63235.17    1.6255205 
     556        0.556    68205.442    4488194.5    4488194.5    883574.25    5371768.7            0      3344191    63235.281    1.6255177 
     557        0.557    68422.233    4485372.9    4485372.9    886382.69    5371755.6            0    3346024.7    63235.392    1.6255148 
     558        0.558    68639.221    4482548.7    4482548.7    889193.69    5371742.4            0    3347859.2    63235.503     1.625512 
     559        0.559    68856.406    4479721.9    4479721.9    892007.22    5371729.1            0    3349694.5    63235.614    1.6255091 
[...]
    9853        9.853    179511.19   -272691.13   -272691.13    2325495.7    2052804.6            0    1530908.8    68752.947    1.4950641 
    9854        9.854    179492.01   -272699.29   -272699.29    2325247.3      2052548            0    1530639.7    68753.464    1.4950529 
    9855        9.855    179472.83    -272707.5    -272707.5    2324998.9    2052291.4            0    1530367.9    68753.981    1.4950416 
    9856        9.856    179453.66   -272715.67   -272715.67    2324750.5    2052034.8            0    1530101.1    68754.499    1.4950304 
    9857        9.857    179434.49   -272723.92   -272723.92    2324502.2    2051778.3            0    1529834.5    68755.016    1.4950192 
    9858        9.858    179415.33   -272732.11   -272732.11    2324253.9    2051521.8            0    1529568.3    68755.533    1.4950079 
    9859        9.859    179396.17    -272740.3    -272740.3    2324005.7    2051265.4            0    1529302.6     68756.05    1.4949967 
    9860         9.86    179377.01   -272748.51   -272748.51    2323757.5      2051009            0    1529037.4    68756.567    1.4949854 
    9861        9.861    179357.85   -272756.72   -272756.72    2323509.4    2050752.6            0    1528772.5    68757.085    1.4949742 
    9862        9.862     179338.7   -272764.94   -272764.94    2323261.2    2050496.3            0    1528508.1    68757.602    1.4949629 
    9863        9.863    179319.55   -272773.34   -272773.34    2323013.2    2050239.9            0    1528241.2    68758.118    1.4949517 
    9864        9.864    179300.41   -272781.57   -272781.57    2322765.2    2049983.6            0    1527977.7    68758.635    1.4949405 
    9865        9.865    179281.27   -272789.69   -272789.69    2322517.2    2049727.5            0    1527717.9    68759.152    1.4949292 
    9866        9.866    179262.13   -272797.49   -272797.49    2322269.2    2049471.8            0    1527462.1    68759.669     1.494918 
    9867        9.867    179242.99   -272805.62   -272805.62    2322021.4    2049215.7            0    1527203.2    68760.186    1.4949067 
    9868        9.868    179223.86   -272813.91   -272813.91    2321773.5    2048959.6            0    1526945.1    68760.702    1.4948955 
    9869        9.869    179204.73   -272822.18   -272822.18    2321525.7    2048703.5            0    1526684.2    68761.219    1.4948843 
    9870         9.87     179185.6   -272830.46   -272830.46    2321277.9    2048447.5            0    1526423.7    68761.736    1.4948731 
    9871        9.871    179166.48   -272838.74   -272838.74    2321030.2    2048191.4            0    1526163.9    68762.252    1.4948618 
    9872        9.872    179147.36   -272846.53   -272846.53    2320782.5      2047936            0    1525912.1    68762.769    1.4948506 
    9873        9.873    179128.25   -272855.66   -272855.66    2320534.9    2047679.2            0    1525637.2    68763.285    1.4948394 
    9874        9.874    179109.13   -272863.97   -272863.97    2320287.2    2047423.3            0    1525379.1    68763.801    1.4948281 
    9875        9.875    179090.02   -272872.28   -272872.28    2320039.7    2047167.4            0    1525121.7    68764.318    1.4948169 
    9876        9.876    179070.91   -272880.52   -272880.52    2319792.2    2046911.6            0      1524879    68764.834    1.4948057 
    9877        9.877    179051.81   -272888.84   -272888.84    2319544.7    2046655.8            0    1524622.9     68765.35    1.4947945 
    9878        9.878    179032.71   -272897.17   -272897.17    2319297.2      2046400            0    1524367.4    68765.866    1.4947833 
    9879        9.879    179013.61   -272905.51   -272905.51    2319049.8    2046144.3            0    1524112.6    68766.383     1.494772 
    9880         9.88    178994.52   -272914.06   -272914.06    2318802.4    2045888.4            0    1523826.7    68766.899    1.4947608 
    9881        9.881    178975.42   -272922.41   -272922.41    2318555.1    2045632.7            0      1523573    68767.415    1.4947496 
    9882        9.882    178956.34   -272930.78   -272930.78    2318307.8    2045377.1            0    1523319.5    68767.931    1.4947384 
    9883        9.883    178937.25   -272939.32   -272939.32    2318060.6    2045121.3            0    1523056.5    68768.446    1.4947272 
    9884        9.884    178918.17   -272947.69   -272947.69    2317813.4    2044865.7            0    1522804.3    68768.962     1.494716 
    9885        9.885    178899.09   -272956.07   -272956.07    2317566.3    2044610.2            0    1522552.6    68769.478    1.4947048 
    9886        9.886    178880.02   -272963.97   -272963.97    2317319.1    2044355.2            0    1522308.4    68769.994    1.4946935 
    9887        9.887    178860.94   -272972.36   -272972.36    2317072.1    2044099.7            0    1522056.8     68770.51    1.4946823 
    9888        9.888    178841.87   -272980.76   -272980.76      2316825    2043844.3            0    1521801.8    68771.025    1.4946711 
    9889        9.889    178822.81   -272988.86   -272988.86      2316578    2043589.2            0    1521477.1    68771.541    1.4946599 
    9890         9.89    178803.74    -272997.3    -272997.3    2316331.1    2043333.8            0    1521227.3    68772.056    1.4946487 
    9891        9.891    178784.68   -273005.71   -273005.71    2316084.1    2043078.4            0    1520978.4    68772.572    1.4946375 
    9892        9.892    178765.62   -273014.12   -273014.12    2315837.2    2042823.1            0    1520730.3    68773.087    1.4946263 
    9893        9.893    178746.57   -273022.64   -273022.64    2315590.4    2042567.8            0    1520482.6    68773.603    1.4946151 
    9894        9.894    178727.52   -273031.06   -273031.06    2315343.6    2042312.5            0    1520236.4    68774.118    1.4946039 
    9895        9.895    178708.47   -273039.49   -273039.49    2315096.8    2042057.3            0    1519991.1    68774.633    1.4945927 
    9896        9.896    178689.42    -273048.7    -273048.7    2314850.1    2041801.4            0    1519732.1    68775.148    1.4945815 
    9897        9.897    178670.38   -273056.68   -273056.68    2314603.4    2041546.7            0    1519495.6    68775.664    1.4945703 
    9898        9.898    178651.34   -273065.12   -273065.12    2314356.7    2041291.6            0    1519253.2    68776.179    1.4945591 
    9899        9.899     178632.3   -273073.56   -273073.56    2314110.1    2041036.6            0    1519011.8    68776.694    1.4945479 
    9900          9.9    178613.27   -273081.72   -273081.72    2313863.6    2040781.8            0    1518810.4    68777.209    1.4945367 
    9901        9.901    178594.24   -273090.18   -273090.18      2313617    2040526.8            0      1518571    68777.724    1.4945256 
    9902        9.902    178575.21   -273098.64   -273098.64    2313370.5    2040271.9            0    1518332.6    68778.239    1.4945144 
    9903        9.903    178556.19    -273107.1    -273107.1    2313124.1      2040017            0    1518095.3    68778.753    1.4945032 
    9904        9.904    178537.16   -273116.23   -273116.23    2312877.6    2039761.4            0    1517848.1    68779.268     1.494492 
    9905        9.905    178518.14    -273124.7    -273124.7    2312631.2    2039506.5            0    1517612.9    68779.783    1.4944808 
    9906        9.906    178499.13   -273133.25   -273133.25    2312384.9    2039251.6            0    1517363.7    68780.298    1.4944696 
    9907        9.907    178480.11   -273141.72   -273141.72    2312138.6    2038996.9            0    1517130.6    68780.812    1.4944584 
    9908        9.908     178461.1    -273150.2    -273150.2    2311892.3    2038742.1            0    1516898.7    68781.327    1.4944473 
    9909        9.909     178442.1   -273158.59   -273158.59    2311646.1    2038487.5            0    1516667.6    68781.841    1.4944361 
    9910         9.91    178423.09    -273166.7    -273166.7    2311399.9    2038233.2            0    1516443.7    68782.356    1.4944249 
    9911        9.911    178404.09   -273175.19   -273175.19    2311153.7    2037978.5            0      1516215     68782.87    1.4944137 
    9912        9.912    178385.09   -273183.69   -273183.69    2310907.6    2037723.9            0    1515987.5    68783.385    1.4944026 
    9913        9.913    178366.09   -273192.69   -273192.69    2310661.5    2037468.8            0    1515755.6    68783.899    1.4943914 
    9914        9.914     178347.1   -273203.79   -273203.79    2310415.4    2037211.6            0    1515477.4    68784.413    1.4943802 
    9915        9.915    178328.11   -273213.61   -273213.61    2310169.4    2036955.8            0    1515228.4    68784.928     1.494369 
    9916        9.916    178309.12   -273222.11   -273222.11    2309923.4    2036701.3            0    1515005.6    68785.442    1.4943579 
    9917        9.917    178290.13   -273230.61   -273230.61    2309677.5    2036446.9            0    1514783.9    68785.956    1.4943467 
    9918        9.918    178271.15   -273240.45   -273240.45    2309431.5    2036191.1            0    1514542.9     68786.47    1.4943355 
    9919        9.919    178252.17   -273248.95   -273248.95    2309185.7    2035936.7            0    1514323.7    68786.984    1.4943244 
    9920         9.92    178233.19   -273257.45   -273257.45    2308939.8    2035682.4            0    1514103.2    68787.498    1.4943132 
    9921        9.921    178214.22   -273265.53   -273265.53      2308694    2035428.5            0    1513892.7    68788.012     1.494302 
    9922        9.922    178195.25   -273274.04   -273274.04    2308448.2    2035174.2            0      1513677    68788.526    1.4942909 
    9923        9.923    178176.28   -273283.22   -273283.22    2308202.5    2034919.3            0    1513450.9    68789.039    1.4942797 
    9924        9.924    178157.31   -273294.07   -273294.07    2307956.8    2034662.7            0    1513199.3    68789.553    1.4942685 
    9925        9.925    178138.35   -273302.58   -273302.58    2307711.1    2034408.5            0    1512987.3    68790.067    1.4942574 
    9926        9.926    178119.38   -273311.96   -273311.96    2307465.5    2034153.5            0    1512761.3    68790.581    1.4942462 
    9927        9.927    178100.42   -273323.06   -273323.06    2307219.9    2033896.8            0    1512938.7    68791.094    1.4942351 
    9928        9.928    178081.47   -273333.49   -273333.49    2306974.3    2033640.8            0      1512685    68791.608    1.4942239 
    9929        9.929    178062.51   -273341.98   -273341.98    2306728.7    2033386.7            0    1512476.2    68792.121    1.4942128 
    9930         9.93    178043.56   -273350.46   -273350.46    2306483.2    2033132.7            0    1512268.5    68792.635    1.4942016 
    9931        9.931    178024.61   -273358.94   -273358.94    2306237.7    2032878.7            0    1512062.1    68793.148    1.4941905 
    9932        9.932    178005.66   -273367.43   -273367.43    2305992.2    2032624.8            0    1511856.8    68793.661    1.4941793 
    9933        9.933    177986.71   -273375.91   -273375.91    2305746.8    2032370.8            0    1511652.7    68794.175    1.4941682 
    9934        9.934    177967.77   -273383.94   -273383.94    2305501.4    2032117.4            0    1511456.5    68794.688     1.494157 
    9935        9.935    177948.83   -273392.43   -273392.43      2305256    2031863.6            0    1511254.7    68795.201    1.4941459 
    9936        9.936    177929.89    -273400.6    -273400.6    2305010.7    2031610.1            0      1511053    68795.714    1.4941347 
    9937        9.937    177910.96   -273409.08   -273409.08    2304765.4    2031356.3            0    1510853.8    68796.227    1.4941236 
    9938        9.938    177892.02   -273418.68   -273418.68    2304520.1    2031101.4            0    1510634.5     68796.74    1.4941124 
    9939        9.939    177873.09   -273427.17   -273427.17    2304274.9    2030847.7            0    1510437.7    68797.253    1.4941013 
    9940         9.94    177854.17   -273436.35   -273436.35    2304029.7    2030593.3            0      1510233    68797.766    1.4940902 
    9941        9.941    177835.24   -273444.83   -273444.83    2303784.5    2030339.7            0    1510038.6    68798.279     1.494079 
    9942        9.942    177816.32   -273453.31   -273453.31    2303539.4    2030086.1            0    1509845.2    68798.792    1.4940679 
    9943        9.943     177797.4   -273461.78   -273461.78    2303294.3    2029832.5            0    1509653.1    68799.304    1.4940568 
    9944        9.944    177778.48   -273470.26   -273470.26    2303049.2    2029578.9            0    1509462.1    68799.817    1.4940456 
    9945        9.945    177759.57      -273479      -273479    2302804.2    2029325.2            0    1509268.6     68800.33    1.4940345 
    9946        9.946    177740.65   -273487.47   -273487.47    2302559.1    2029071.7            0    1509079.9    68800.842    1.4940234 
    9947        9.947    177721.74   -273495.94   -273495.94    2302314.2    2028818.2            0    1508892.4    68801.355    1.4940122 
    9948        9.948    177702.83   -273504.41   -273504.41    2302069.2    2028564.8            0    1508705.9    68801.867    1.4940011 
    9949        9.949    177683.93   -273513.55   -273513.55    2301824.3    2028310.8            0    1508509.1     68802.38      1.49399 
    9950         9.95    177665.03   -273522.86   -273522.86    2301579.4    2028056.6            0    1508310.1    68802.892    1.4939788 
    9951        9.951    177646.12   -273531.32   -273531.32    2301334.6    2027803.3            0      1508127    68803.405    1.4939677 
    9952        9.952    177627.23   -273540.06   -273540.06    2301089.7    2027549.7            0    1507941.4    68803.917    1.4939566 
    9953        9.953    177608.33   -273548.39   -273548.39      2300845    2027296.6            0    1507762.5    68804.429    1.4939455 
    9954        9.954    177589.44   -273556.84   -273556.84    2300600.2    2027043.4            0    1507582.7    68804.941    1.4939344 
    9955        9.955    177570.54   -273564.71   -273564.71    2300355.5    2026790.8            0    1507405.8    68805.453    1.4939232 
    9956        9.956    177551.66   -273573.16   -273573.16    2300110.8    2026537.6            0      1507228    68805.965    1.4939121 
    9957        9.957    177532.77    -273582.4    -273582.4    2299866.1    2026283.7            0    1507036.5    68806.477     1.493901 
    9958        9.958    177513.88   -273590.84   -273590.84    2299621.4    2026030.6            0    1506850.5    68806.989    1.4938899 
    9959        9.959       177495   -273599.15   -273599.15    2299376.8    2025777.7            0    1506678.9    68807.501    1.4938788 
    9960         9.96    177476.12   -273607.47   -273607.47    2299132.3    2025524.8            0    1506508.2    68808.013    1.4938677 
    9961        9.961    177457.25    -273615.4    -273615.4    2298887.7    2025272.3            0    1506342.6    68808.525    1.4938565 
    9962        9.962    177438.37   -273623.83   -273623.83    2298643.2    2025019.4            0    1506170.6    68809.037    1.4938454 
    9963        9.963     177419.5   -273632.38   -273632.38    2298398.7    2024766.3            0      1505998    68809.548    1.4938343 
    9964        9.964    177400.63   -273641.25   -273641.25    2298154.2      2024513            0    1505820.4     68810.06    1.4938232 
    9965        9.965    177381.76   -273649.67   -273649.67    2297909.8    2024260.1            0    1505650.9    68810.572    1.4938121 
    9966        9.966    177362.89   -273658.08   -273658.08    2297665.4    2024007.3            0    1505482.1    68811.083     1.493801 
    9967        9.967    177344.03   -273667.11   -273667.11      2297421    2023753.9            0    1505304.3    68811.595    1.4937899 
    9968        9.968    177325.17    -273676.1    -273676.1    2297176.7    2023500.6            0      1505127    68812.106    1.4937788 
    9969        9.969    177306.31   -273685.33   -273685.33    2296932.4      2023247            0    1504943.6    68812.618    1.4937677 
    9970         9.97    177287.45   -273693.72   -273693.72    2296688.1    2022994.3            0    1504774.3    68813.129    1.4937566 
    9971        9.971    177268.59   -273701.66   -273701.66    2296443.8    2022742.1            0    1504537.1     68813.64    1.4937455 
    9972        9.972    177249.74   -273710.03   -273710.03    2296199.6    2022489.5            0    1504374.8    68814.151    1.4937344 
    9973        9.973    177230.89    -273718.4    -273718.4    2295955.3    2022236.9            0    1504213.2    68814.663    1.4937233 
    9974        9.974    177212.04   -273726.76   -273726.76    2295711.2    2021984.4            0    1504052.5    68815.174    1.4937122 
    9975        9.975    177193.19   -273735.71   -273735.71      2295467    2021731.3            0    1503884.8    68815.685    1.4937011 
    9976        9.976    177174.35   -273744.42   -273744.42    2295222.9    2021478.5            0    1503754.7    68816.196      1.49369 
    9977        9.977     177155.5      -273753      -273753    2294978.8    2021225.8            0    1503592.7    68816.707    1.4936789 
    9978        9.978    177136.66   -273761.33   -273761.33    2294734.7    2020973.3            0    1503434.7    68817.218    1.4936679 
    9979        9.979    177117.82   -273771.26   -273771.26    2294490.6    2020719.4            0    1503564.9    68817.729    1.4936568 
    9980         9.98    177098.98   -273779.57   -273779.57    2294246.6      2020467            0    1503528.9    68818.239    1.4936457 
    9981        9.981    177080.14   -273787.84   -273787.84    2294002.5    2020214.7            0    1503371.4     68818.75    1.4936346 
    9982        9.982    177061.31    -273796.1    -273796.1    2293758.5    2019962.4            0    1503214.5    68819.261    1.4936235 
    9983        9.983    177042.47   -273804.98   -273804.98    2293514.5    2019709.5            0    1503045.3    68819.771    1.4936124 
    9984        9.984    177023.64   -273814.53   -273814.53    2293270.5      2019456            0    1502871.1    68820.282    1.4936013 
    9985        9.985    177004.81   -273822.76   -273822.76    2293026.5    2019203.8            0    1502712.4    68820.793    1.4935903 
    9986        9.986    176985.98   -273831.22   -273831.22    2292782.6    2018951.4            0    1502573.5    68821.303    1.4935792 
    9987        9.987    176967.15   -273839.44   -273839.44    2292538.7    2018699.3            0    1502419.2    68821.813    1.4935681 
    9988        9.988    176948.32   -273850.03   -273850.03    2292294.8    2018444.8            0    1502224.6    68822.324     1.493557 
    9989        9.989     176929.5   -273858.25   -273858.25      2292051    2018192.7            0    1502070.9    68822.834     1.493546 
    9990         9.99    176910.68   -273866.44   -273866.44    2291807.1    2017940.7            0    1501917.9    68823.344    1.4935349 
    9991        9.991    176891.86   -273874.62   -273874.62    2291563.3    2017688.7            0    1501765.3    68823.855    1.4935238 
    9992        9.992    176873.04   -273883.41   -273883.41    2291319.5    2017436.1            0    1501602.5    68824.365    1.4935127 
    9993        9.993    176854.22   -273891.58   -273891.58    2291075.8    2017184.2            0    1501450.5    68824.875    1.4935017 
    9994        9.994    176835.41   -273900.61   -273900.61      2290832    2016931.4            0    1501285.9    68825.385    1.4934906 
    9995        9.995    176816.59   -273909.25   -273909.