LAMMPS (19 Sep 2019)
OMP_NUM_THREADS environment is not set. Defaulting to 1 thread. (../comm.cpp:93)
  using 1 OpenMP thread(s) per MPI task
Reading data file ...
  orthogonal box = (-6.37931 -4.19611 -10.7845) to (6.5753 4.22201 10.6816)
  1 by 1 by 1 MPI processor grid
  reading atoms ...
  161 atoms
  read_data CPU = 0.0488128 secs
Replicating atoms ...
  orthogonal box = (-6.37931 -4.19611 -10.7845) to (32.4845 21.0582 53.6137)
  1 by 1 by 1 MPI processor grid
  4347 atoms
  replicate CPU = 0.0002507 secs
Reading potential file ffield.reax.FC with DATE: 2013-06-28
WARNING: Changed valency_val to valency_boc for X (../reaxc_ffield.cpp:315)
Neighbor list info ...
  update every 10 steps, delay 0 steps, check no
  max neighbors/atom: 2000, page size: 100000
  master list distance cutoff = 12
  ghost atom cutoff = 12
  binsize = 6, bins = 7 5 11
  2 neighbor lists, perpetual/occasional/extra = 2 0 0
  (1) pair reax/c, perpetual
      attributes: half, newton off, ghost
      pair build: half/bin/newtoff/ghost
      stencil: half/ghost/bin/3d/newtoff
      bin: standard
  (2) fix qeq/reax, perpetual, copy from (1)
      attributes: half, newton off, ghost
      pair build: copy
      stencil: none
      bin: none
Setting up Verlet run ...
  Unit style    : real
  Current step  : 0
  Time step     : 0.01
Per MPI rank memory allocation (min/avg/max) = 526.7 | 526.7 | 526.7 Mbytes
Step Time Temp PotEng KinEng TotEng E_bond Press Volume Density 
       0            0          300    5373839.2    3886.3801    5377725.6            0    2730470.3    63205.652    1.6262797 
       1         0.01    323.41331    5373534.3    4189.6902      5377724            0    2730686.9    63205.689    1.6262787 
       2         0.02    396.43332    5372583.7    5135.6352    5377719.3            0    2731374.1    63205.799    1.6262759 
       3         0.03    519.02651    5370987.9    6723.7811    5377711.7            0    2732533.3    63205.983    1.6262711 
       4         0.04    691.13671    5368747.7       8953.4    5377701.1            0    2734163.7    63206.241    1.6262645 
       5         0.05    912.68496    5365864.2    11823.469    5377687.6            0    2736266.1    63206.573     1.626256 
       6         0.06    1183.5694    5362338.6    15332.669    5377671.2            0    2738837.9    63206.978    1.6262455 
       7         0.07    1503.6651    5358172.3     19479.38    5377651.7            0      2741875    63207.458    1.6262332 
       8         0.08    1872.8237    5353367.5    24261.682    5377629.2            0    2745377.6    63208.011     1.626219 
       9         0.09    2290.8734    5347926.3     29677.35    5377603.6            0    2749343.2    63208.638    1.6262028 
      10          0.1    2757.6187    5341850.9    35723.849    5377574.8            0    2753767.5     63209.34    1.6261848 
      11         0.11    3272.8397    5335144.4    42398.331    5377542.7            0    2758648.2    63210.115    1.6261648 
      12         0.12    3836.2922    5327809.5    49697.632    5377507.1            0    2763980.1    63210.966    1.6261429 
      13         0.13    4447.7068    5319849.8    57618.265    5377468.1            0    2769762.1     63211.89    1.6261192 
      14         0.14    5106.7894    5311268.8    66156.416    5377425.2            0      2775988     63212.89    1.6260934 
      15         0.15    5813.2196    5302070.3    75307.938    5377378.3            0      2782653    63213.964    1.6260658 
      16         0.16    6566.6513    5292258.7    85068.345      5377327            0    2789752.5    63215.114    1.6260362 
      17         0.17    7366.7116    5281838.2    95432.805      5377271            0      2797282    63216.339    1.6260047 
      18         0.18    8213.0004      5270814    106396.14    5377210.1            0    2805238.4    63217.639    1.6259713 
      19         0.19    9105.0903    5259190.7    117952.81    5377143.5            0    2813610.1    63219.015    1.6259359 
      20          0.2    10042.526    5246973.8    130096.91    5377070.8            0    2822394.9    63220.467    1.6258986 
      21         0.21    11024.822      5234169    142822.16    5376991.2            0    2831583.3    63221.995    1.6258593 
      22         0.22    12051.466      5220782    156121.93      5376904            0    2841169.8    63223.599     1.625818 
      23         0.23    13121.916    5206819.1    169989.17    5376808.3            0    2851148.1    63225.281    1.6257748 
      24         0.24    14235.597    5192286.7    184416.47    5376703.2            0    2861509.6    63227.039    1.6257296 
      25         0.25    15391.907    5177191.4    199396.01    5376587.4            0    2872242.2    63228.875    1.6256824 
      26         0.26    16590.211    5161540.5    214919.56    5376460.1            0    2883345.7    63230.788    1.6256332 
      27         0.27    17829.845      5145341    230978.52    5376319.5            0    2894803.5    63232.779     1.625582 
      28         0.28    19110.111    5128600.4    247563.85    5376164.2            0    2906614.4    63234.848    1.6255288 
      29         0.29     20430.28    5111326.4    264666.11    5375992.5            0    2918759.7    63236.996    1.6254736 
      30          0.3    21789.592    5093527.2    282275.46    5375802.7            0    2931236.6    63239.222    1.6254164 
      31         0.31    23187.257      5075211    300381.65    5375592.6            0    2944028.4    63241.528    1.6253571 
      32         0.32    24622.451    5056386.3    318974.01    5375360.3            0    2957129.2    63243.913    1.6252958 
      33         0.33     26094.32    5037061.8    338041.49    5375103.3            0    2970527.2    63246.378    1.6252324 
      34         0.34    27601.983    5017246.7    357572.66    5374819.4            0    2984212.7    63248.924     1.625167 
      35         0.35    29144.527    4996949.6    377555.71    5374505.3            0    2998167.8     63251.55    1.6250996 
      36         0.36    30721.016    4976180.3    397978.49    5374158.8            0      3012390    63254.257      1.62503 
      37         0.37    32330.488    4954948.6    418828.55    5373777.1            0    3026866.9    63257.045    1.6249584 
      38         0.38    33971.959    4933263.6    440093.16    5373356.7            0    3041574.9    63259.915    1.6248847 
      39         0.39    35644.429    4911135.9    461759.34    5372895.2            0    3056514.1    63262.868    1.6248088 
      40          0.4    37346.883    4888575.7    483813.95    5372389.6            0    3071667.4    63265.903    1.6247309 
      41         0.41    39078.298    4865593.6    506243.73    5371837.3            0    3087022.1    63269.021    1.6246508 
      42         0.42    40837.647    4842199.4     529035.4    5371234.8            0      3102565    63272.223    1.6245686 
      43         0.43    42623.908    4818403.7     552175.7    5370579.4            0    3118285.7    63275.508    1.6244842 
      44         0.44    44436.069    4794217.6    575651.51    5369869.1            0    3134169.2    63278.878    1.6243977 
      45         0.45    46273.131    4769651.9    599449.93    5369101.8            0    3150202.9    63282.332    1.6243091 
      46         0.46    48134.124    4744717.4    623558.34    5368275.7            0    3166380.9    63285.872    1.6242182 
      47         0.47    50018.104    4719424.7    647964.55    5367389.3            0    3182685.2    63289.497    1.6241252 
      48         0.48    51924.163    4693785.3    672656.79    5366442.1            0    3199110.9    63293.208      1.62403 
      49         0.49    53851.434    4667809.9    697623.81    5365433.7            0    3215640.2    63297.006    1.6239325 
      50          0.5    55799.086    4641510.2    722854.87    5364365.1            0    3232265.8     63300.89    1.6238329 
      51         0.51    57766.331    4614896.7    748339.74    5363236.4            0    3248977.7    63304.862     1.623731 
      52         0.52    59752.415    4587980.4    774068.66    5362049.1            0    3265768.5    63308.922    1.6236269 
      53         0.53    61756.612    4560772.8    800032.24    5360805.1            0    3282626.6    63313.069    1.6235205 
      54         0.54    63778.215    4533284.7     826221.3      5359506            0      3299544    63317.306    1.6234119 
      55         0.55    65816.525    4505526.8    852626.79    5358153.5            0    3316506.7    63321.632     1.623301 
      56         0.56    67870.835    4477510.3    879239.55    5356749.8            0    3333515.7    63326.047    1.6231878 
      57         0.57    69940.418    4449245.8    906050.17      5355296            0    3350556.4    63330.552    1.6230723 
      58         0.58    72024.513    4420744.1    933048.79    5353792.8            0    3367614.3    63335.148    1.6229545 
      59         0.59    74122.314    4392015.9    960224.97    5352240.8            0    3384688.9    63339.834    1.6228345 
      60          0.6    76232.959      4363072    987567.52    5350639.5            0    3401768.9    63344.612     1.622712 
      61         0.61    78355.523    4333922.9    1015064.5    5348987.4            0    3418840.7    63349.482    1.6225873 
      62         0.62    80489.019    4304579.4    1042703.1    5347282.4            0    3435894.3    63354.444    1.6224602 
      63         0.63    82632.395    4275051.8    1070469.7    5345521.4            0    3452920.1    63359.498    1.6223308 
      64         0.64    84784.539    4245350.6    1098349.8    5343700.5            0    3469901.9    63364.646     1.622199 
      65         0.65    86944.283    4215486.7    1126328.5    5341815.1            0    3486829.5    63369.887    1.6220648 
      66         0.66    89110.415    4185470.3    1154389.8    5339860.2            0    3503693.5    63375.222    1.6219283 
      67         0.67    91281.687    4155311.9    1182517.8    5337829.7            0    3520479.5    63380.651    1.6217894 
      68         0.68    93456.827    4125021.7    1210695.9    5335717.6            0    3537173.1    63386.175     1.621648 
      69         0.69    95634.547    4094610.4    1238907.4    5333517.7            0    3553762.3    63391.794    1.6215043 
      70          0.7    97813.562    4064087.9    1267135.6    5331223.6            0    3570230.4    63397.509    1.6213581 
      71         0.71    99992.595    4033464.8    1295364.1    5328828.9            0    3586570.2     63403.32    1.6212095 
      72         0.72    102170.39    4002751.1    1323576.6    5326327.7            0    3602768.3    63409.226    1.6210585 
      73         0.73    104345.74    3971956.7    1351757.3      5323714            0    3618809.1     63415.23     1.620905 
      74         0.74    106517.45    3941091.7      1379891    5320982.7            0    3634682.4    63421.331    1.6207491 
      75         0.75    108684.41      3910166    1407963.2    5318129.1            0    3650380.5    63427.529    1.6205907 
      76         0.76    110845.56    3879189.2    1435959.9    5315149.1            0    3665890.1    63433.824    1.6204299 
      77         0.77    112999.89      3848171    1463868.4    5312039.4            0    3681204.1    63440.218    1.6202666 
      78         0.78    115146.47    3817120.7    1491676.5    5308797.3            0      3696310     63446.71    1.6201008 
      79         0.79    117284.44    3786047.7    1519373.1    5305420.7            0    3711203.3    63453.301    1.6199325 
      80          0.8       119413    3754960.9    1546947.7    5301908.6            0    3725879.6    63459.991    1.6197617 
      81         0.81     121531.4    3723869.3    1574390.8      5298260            0    3740330.1    63466.781    1.6195885 
      82         0.82    123638.97    3692781.5    1601693.5      5294475            0    3754547.7     63473.67    1.6194127 
      83         0.83    125735.07    3661706.1    1628847.6    5290553.7            0    3768525.5    63480.658    1.6192344 
      84         0.84     127819.1    3630651.4    1655845.4    5286496.8            0    3782253.9    63487.747    1.6190536 
      85         0.85    129890.48    3599625.5    1682679.2    5282304.8            0    3795736.7    63494.937    1.6188703 
      86         0.86    131948.65    3568636.4    1709342.1    5277978.5            0    3808968.3    63502.227    1.6186844 
      87         0.87    133993.09    3537691.6    1735826.9    5273518.5            0      3821943    63509.617    1.6184961 
      88         0.88    136023.24    3506798.7    1762126.7    5268925.4            0    3834658.4    63517.109    1.6183052 
      89         0.89    138038.57    3475964.9    1788234.5    5264199.5            0    3847106.5    63524.702    1.6181117 
      90          0.9    140038.54    3445197.6    1814143.3    5259340.9            0      3859289    63532.397    1.6179158 
      91         0.91     142022.6    3414503.2      1839846    5254349.2            0    3871197.1    63540.193    1.6177172 
      92         0.92     143990.2    3383888.6    1865335.5    5249224.1            0    3882825.9    63548.091    1.6175162 
      93         0.93    145940.79    3353360.4    1890604.7    5243965.1            0    3894176.7     63556.09    1.6173126 
      94         0.94    147873.83    3322925.1    1915646.4    5238571.6            0    3905244.9    63564.192    1.6171065 
      95         0.95    149788.77    3292588.6    1940453.7    5233042.3            0    3916025.4    63572.395    1.6168978 
      96         0.96    151685.08    3262356.8    1965019.6    5227376.4            0    3926518.5    63580.701    1.6166866 
      97         0.97    153562.22    3232235.8    1989337.3      5221573            0    3936718.6    63589.109    1.6164728 
      98         0.98    155419.71    3202231.1    2013400.3    5215631.4            0    3946627.7    63597.619    1.6162565 
      99         0.99    157257.06    3172347.9    2037202.3    5209550.2            0    3956233.2    63606.231    1.6160377 
     100            1    159073.79    3142591.4    2060737.4    5203328.8            0    3965534.5    63614.946    1.6158163 
     101         1.01    160869.47    3112966.9    2083999.7    5196966.6            0    3974533.4    63623.763    1.6155924 
     102         1.02    162643.68    3083478.9    2106983.9    5190462.9            0    3983225.4    63632.682    1.6153659 
     103         1.03    164396.04    3054132.6      2129685    5183817.6            0      3991616    63641.703    1.6151369 
     104         1.04    166126.16    3024932.2    2152098.1    5177030.3            0    3999702.5    63650.827    1.6149054 
     105         1.05    167833.72    2995882.3    2174218.8      5170101            0    4007483.9    63660.052    1.6146714 
     106         1.06    169518.38    2966986.6    2196042.9    5163029.5            0    4014963.3    63669.379    1.6144349 
     107         1.07    171179.84    2938249.5    2217566.5      5155816            0    4022125.5    63678.809    1.6141958 
     108         1.08    172817.84    2909674.5      2238786    5148460.5            0    4028974.4    63688.339    1.6139542 
     109         1.09    174432.09    2881265.5      2259698    5140963.5            0    4035511.3    63697.972    1.6137102 
     110          1.1    176022.37    2853025.9    2280299.4    5133325.3            0    4041739.9    63707.705    1.6134636 
     111         1.11    177588.44    2824958.9    2300587.3    5125546.2            0    4047655.8     63717.54    1.6132146 
     112         1.12    179130.11    2797067.9    2320558.9    5117626.9            0    4053264.1    63727.476    1.6129631 
     113         1.13    180647.17    2769355.9    2340211.9    5109567.8            0    4058563.4    63737.512    1.6127091 
     114         1.14    182139.46    2741825.6    2359543.9    5101369.5            0    4063551.4    63747.648    1.6124527 
     115         1.15    183606.81    2714479.7    2378552.9    5093032.5            0    4068237.4    63757.885    1.6121938 
     116         1.16    185049.09    2687320.7      2397237    5084557.7            0      4072614    63768.221    1.6119325 
     117         1.17    186466.15    2660351.2    2415594.5    5075945.7            0    4076690.4    63778.657    1.6116687 
     118         1.18     187857.9    2633573.2    2433624.1    5067197.2            0    4080462.8    63789.192    1.6114025 
     119         1.19    189224.23      2606989    2451324.3    5058313.2            0    4083941.3    63799.825     1.611134 
     120          1.2    190565.05    2580600.4    2468694.1    5049294.5            0    4087124.2    63810.557     1.610863 
     121         1.21     191880.3    2554409.5    2485732.6    5040142.1            0    4090012.6    63821.386    1.6105897 
     122         1.22    193169.92    2528417.7    2502439.1    5030856.8            0    4092604.6    63832.313     1.610314 
     123         1.23    194433.86    2502626.7      2518813    5021439.7            0    4094907.7    63843.337    1.6100359 
     124         1.24     195672.1    2477037.9    2534853.9    5011891.8            0    4096921.1    63854.457    1.6097555 
     125         1.25    196884.62    2451652.5    2550561.6    5002214.1            0    4098648.1    63865.673    1.6094728 
     126         1.26    198071.42      2426472    2565936.1      4992408            0    4100092.2    63876.985    1.6091878 
     127         1.27    199232.49    2401497.2    2580977.4    4982474.6            0    4101257.4    63888.391    1.6089005 
     128         1.28    200367.88    2376729.1    2595685.8    4972414.8            0    4102144.5    63899.891     1.608611 
     129         1.29    201477.59    2352168.7    2610061.7    4962230.4            0    4102765.2    63911.485    1.6083192 
     130          1.3    202561.69    2327816.6    2624105.8    4951922.4            0    4103114.6    63923.172    1.6080251 
     131         1.31    203620.23    2303673.6    2637818.7    4941492.3            0    4103198.9    63934.951    1.6077289 
     132         1.32    204653.26    2279740.2    2651201.2    4930941.4            0    4103027.5    63946.821    1.6074304 
     133         1.33    205660.87    2256016.7    2664254.3      4920271            0      4102596    63958.783    1.6071298 
     134         1.34    206643.13    2232503.7    2676979.2    4909482.9            0    4101912.1    63970.835     1.606827 
     135         1.35    207600.16    2209201.2    2689377.1    4898578.3            0    4100980.8    63982.976    1.6065221 
     136         1.36    208532.05    2186109.4    2701449.3    4887558.7            0    4099807.5    63995.205    1.6062151 
     137         1.37    209438.91    2163228.4    2713197.4    4876425.7            0      4098389    64007.523     1.605906 
     138         1.38    210320.86    2140558.1    2724622.8    4865180.8            0      4096741    64019.927    1.6055949 
     139         1.39    211178.05    2118098.5    2735727.3    4853825.7            0    4094848.6    64032.418    1.6052817 
     140          1.4     212010.6    2095849.3    2746512.6      4842362            0    4092726.1    64044.994    1.6049664 
     141         1.41    212818.66    2073810.5    2756980.7    4830791.2            0    4090373.7    64057.654    1.6046492 
     142         1.42    213602.38    2051981.6    2767133.5    4819115.1            0    4087795.9    64070.398    1.6043301 
     143         1.43    214361.93      2030362    2776973.2    4807335.1            0      4085005    64083.224     1.604009 
     144         1.44    215097.47    2008951.5    2786501.8    4795453.3            0    4081997.2    64096.132    1.6036859 
     145         1.45    215809.17    1987749.4    2795721.6      4783471            0    4078773.9    64109.121     1.603361 
     146         1.46    216497.22      1966755      2804635      4771390            0    4075348.2    64122.189    1.6030343 
     147         1.47     217161.8      1945968    2813244.3    4759212.3            0    4071723.8    64135.336    1.6027057 
     148         1.48     217803.1    1925387.2    2821552.1    4746939.3            0    4067902.2     64148.56    1.6023753 
     149         1.49    218421.31      1905012    2829560.9    4734572.9            0    4063880.9    64161.861    1.6020431 
     150          1.5    219016.65    1884841.8    2837273.2      4722115            0    4059669.7    64175.237    1.6017092 
     151         1.51    219589.31    1864875.4    2844691.8    4709567.2            0    4055274.8    64188.687    1.6013735 
     152         1.52    220139.51    1845112.1    2851819.4    4696931.5            0    4050693.2    64202.211    1.6010362 
     153         1.53    220667.46    1825550.7    2858658.8    4684209.5            0    4045931.9    64215.807    1.6006973 
     154         1.54    221173.38    1806190.1    2865212.8    4671402.9            0    4040993.7    64229.473    1.6003567 
     155         1.55    221657.49    1787029.5    2871484.2    4658513.7            0    4035884.4    64243.209    1.6000145 
     156         1.56    222120.02    1768067.5    2877476.1    4645543.6            0    4030609.3    64257.014    1.5996707 
     157         1.57     222561.2    1749303.2    2883191.4    4632494.7            0    4025169.6    64270.886    1.5993255 
     158         1.58    222981.26    1730735.2    2888633.2    4619368.4            0    4019571.4    64284.824    1.5989787 
     159         1.59    223380.44    1712362.3    2893804.3    4606166.7            0    4013817.6    64298.827    1.5986305 
     160          1.6    223758.97    1694183.2    2898708.1    4592891.3            0    4007911.5    64312.894    1.5982808 
     161         1.61     224117.1    1676196.6    2903347.5    4579544.1            0    4001852.7    64327.022    1.5979298 
     162         1.62    224455.07    1658401.3    2907725.8    4566127.1            0    3995649.8    64341.212    1.5975774 
     163         1.63    224773.12    1640795.8      2911846    4552641.8            0    3989303.5    64355.461    1.5972237 
     164         1.64     225071.5    1623378.8    2915711.4    4539090.3            0    3982816.1    64369.769    1.5968686 
     165         1.65    225350.46      1606149    2919325.2    4525474.2            0    3976191.7    64384.134    1.5965124 
     166         1.66    225610.25    1589104.9    2922690.7    4511795.5            0    3969436.8    64398.554    1.5961549 
     167         1.67    225851.12    1572244.8      2925811    4498055.8            0    3962544.7    64413.028    1.5957962 
     168         1.68    226073.31    1555567.5    2928689.5      4484257            0    3955525.7    64427.556    1.5954364 
     169         1.69    226277.09    1539071.5    2931329.3    4470400.8            0      3948377    64442.135    1.5950754 
     170          1.7    226462.71    1522755.2    2933733.9      4456489            0    3941102.9    64456.764    1.5947134 
     171         1.71    226630.41    1506617.2    2935906.4    4442523.6            0    3933712.2    64471.441    1.5943504 
     172         1.72    226780.46    1490655.8    2937850.2      4428506            0    3926200.3    64486.166    1.5939863 
     173         1.73    226913.11    1474869.5    2939568.6    4414438.1            0    3918569.6    64500.937    1.5936213 
     174         1.74    227028.61    1459256.5    2941064.9    4400321.4            0    3910817.3    64515.752    1.5932553 
     175         1.75    227127.21    1443815.8    2942342.3    4386158.1            0    3902951.6     64530.61    1.5928885 
     176         1.76    227209.18    1428545.5    2943404.2    4371949.7            0    3894967.3    64545.509    1.5925208 
     177         1.77    227274.76    1413444.1    2944253.7    4357697.8            0    3886865.9    64560.449    1.5921523 
     178         1.78    227324.21    1398509.8    2944894.4    4343404.2            0    3878659.1    64575.427     1.591783 
     179         1.79    227357.79    1383741.2    2945329.3    4329070.5            0    3870416.4    64590.442    1.5914129 
     180          1.8    227375.76    1369136.3    2945562.1    4314698.5            0    3862310.8    64605.493    1.5910422 
     181         1.81    227378.41    1354693.2    2945596.4    4300289.6            0    3854432.2    64620.578    1.5906708 
     182         1.82    227366.01    1340409.6    2945435.8    4285845.4            0    3846339.4    64635.695    1.5902988 
     183         1.83    227338.82    1326284.9    2945083.5    4271368.4            0    3838254.4    64650.844    1.5899261 
     184         1.84     227297.1      1312316    2944543.1    4256859.1            0    3830098.5    64666.022    1.5895529 
     185         1.85    227241.19    1298500.1    2943818.8    4242318.9            0    3823434.1    64681.229    1.5891792 
     186         1.86     227171.5    1284833.1    2942916.1    4227749.2            0      3817952    64696.463     1.588805 
     187         1.87    227088.13    1271317.4    2941835.9    4213153.4            0    3807289.3    64711.722    1.5884304 
     188         1.88    226990.86    1257955.4    2940575.9    4198531.4            0      3795077    64727.004    1.5880554 
     189         1.89    226879.88      1244748    2939138.2    4183886.2            0    3783820.7     64742.31    1.5876799 
     190          1.9     226755.5    1231694.3    2937526.9    4169221.3            0    3772458.2    64757.636    1.5873042 
     191         1.91    226618.04    1218788.6    2935746.2    4154534.8            0    3761907.8    64772.981    1.5869281 
     192         1.92    226467.94    1206028.2    2933801.7    4139829.9            0    3754971.1    64788.344    1.5865518 
     193         1.93    226305.55    1193406.8      2931698    4125104.7            0    3746956.6    64803.723    1.5861753 
     194         1.94    226130.98    1180925.6    2929436.6    4110362.2            0    3736577.5    64819.118    1.5857986 
     195         1.95    225944.39    1168585.3    2927019.3    4095604.6            0    3726596.7    64834.526    1.5854217 
     196         1.96    225746.09    1156384.8    2924450.4    4080835.2            0    3717990.4    64849.946    1.5850447 
     197         1.97    225536.43    1144318.4    2921734.4    4066052.8            0    3709932.4    64865.376    1.5846677 
     198         1.98    225315.73    1132383.2    2918875.2    4051258.4            0    3701688.7    64880.816    1.5842906 
     199         1.99    225084.17      1120577    2915875.5    4036452.4            0    3691726.2    64896.263    1.5839135 
     200            2     224841.9    1108903.2      2912737    4021640.2            0    3681558.2    64911.718    1.5835364 
     201         2.01    224589.12      1097356    2909462.4    4006818.4            0    3672138.1    64927.177    1.5831593 
     202         2.02    224325.81      1085939    2906051.3    3991990.3            0    3658783.7    64942.639    1.5827824 
     203         2.03    224051.93      1074658    2902503.3    3977161.3            0    3645399.5    64958.105    1.5824056 
     204         2.04    223767.81    1063504.2    2898822.6    3962326.8            0    3634359.5     64973.57    1.5820289 
     205         2.05    223473.85    1052478.1    2895014.5    3947492.6            0    3624797.1    64989.036    1.5816524 
     206         2.06    223170.35    1041573.7    2891082.8    3932656.5            0    3614968.9    65004.499    1.5812762 
     207         2.07     222857.6    1030790.3    2887031.2    3917821.5            0    3605403.6    65019.959    1.5809002 
     208         2.08    222535.96    1020123.5    2882864.5    3902987.9            0    3596751.4    65035.415    1.5805245 
     209         2.09     222205.9    1009567.8    2878588.7    3888156.5            0    3590215.5    65050.865    1.5801491 
     210          2.1     221867.9    999117.03      2874210      3873327            0    3585481.1    65066.308    1.5797741 
     211         2.11       221522    988769.92      2869729    3858498.9            0    3577938.6    65081.743    1.5793994 
     212         2.12    221167.94    978535.82    2865142.4    3843678.2            0      3566825    65097.169    1.5790251 
     213         2.13    220805.88     968411.2      2860452    3828863.2            0    3555977.5    65112.585    1.5786513 
     214         2.14    220435.88    958396.52    2855658.8    3814055.3            0      3540741    65127.989    1.5782779 
     215         2.15    220057.55    948502.01    2850757.6    3799259.6            0    3522655.8    65143.381     1.577905 
     216         2.16     219670.8    938728.88    2845747.4    3784476.3            0    3505873.8    65158.758    1.5775326 
     217         2.17    219276.13    929070.51    2840634.7    3769705.2            0    3494120.8     65174.12    1.5771608 
     218         2.18    218874.12    919519.81    2835426.8    3754946.6            0    3483285.3    65189.465    1.5767895 
     219         2.19    218465.21    910073.29    2830129.6    3740202.9            0    3473090.9    65204.792    1.5764189 
     220          2.2    218049.76    900724.77    2824747.6    3725472.3            0    3462604.6    65220.101    1.5760489 
     221         2.21       217628    891472.27    2819283.7      3710756            0    3452461.1     65235.39    1.5756795 
     222         2.22     217200.2    882313.82    2813741.8    3696055.6            0    3444587.1    65250.658    1.5753108 
     223         2.23    216766.45    873249.22    2808122.8      3681372            0    3434158.9    65265.905    1.5749428 
     224         2.24    216326.31    864285.49    2802420.9    3666706.3            0    3417405.5    65281.129    1.5745755 
     225         2.25    215879.47    855429.31    2796632.3    3652061.6            0    3402760.9    65296.329     1.574209 
     226         2.26    215426.68    846672.63    2790766.6    3637439.2            0    3398023.9    65311.504    1.5738432 
     227         2.27     214968.9    837996.85    2784836.2      3622833            0    3395793.5    65326.654    1.5734782 
     228         2.28    214506.18    829404.45    2778841.8    3608246.3            0    3385947.4    65341.778     1.573114 
     229         2.29    214037.96    820905.47    2772776.3    3593681.8            0    3371618.9    65356.875    1.5727506 
     230          2.3    213564.15    812501.37    2766638.2    3579139.6            0    3358073.8    65371.944    1.5723881 
     231         2.31    213085.06    804188.61    2760431.8    3564620.4            0    3346758.5    65386.984    1.5720264 
     232         2.32    212600.96    795966.19    2754160.5    3550126.7            0    3334106.9    65401.995    1.5716656 
     233         2.33    212111.93    787834.54    2747825.3    3535659.8            0    3321284.1    65416.976    1.5713057 
     234         2.34     211618.2     779789.3    2741429.2    3521218.5            0    3311488.2    65431.925    1.5709467 
     235         2.35    211120.07    771823.31    2734976.2    3506799.5            0      3302495    65446.843    1.5705886 
     236         2.36    210617.67    763939.37    2728467.8    3492407.1            0    3292377.2    65461.728    1.5702315 
     237         2.37     210110.8    756140.43    2721901.5    3478041.9            0    3278796.1    65476.581    1.5698753 
     238         2.38    209599.22    748433.27    2715274.2    3463707.4            0    3263915.5    65491.399    1.5695201 
     239         2.39    209083.29    740811.49    2708590.5      3449402            0    3253682.6    65506.184    1.5691658 
     240          2.4     208563.8    733263.77    2701860.7    3435124.5            0    3248818.2    65520.933    1.5688126 
     241         2.41    208041.11    725785.88    2695089.5    3420875.4            0    3240012.4    65535.648    1.5684604 
     242         2.42    207515.04    718383.28    2688274.5    3406657.8            0    3228950.1    65550.326    1.5681091 
     243         2.43    206985.74    711053.21    2681417.6    3392470.8            0    3220528.2    65564.969    1.5677589 
     244         2.44    206453.33    703795.13    2674520.4    3378315.6            0    3208648.4    65579.574    1.5674098 
     245         2.45    205917.44    696615.73    2667578.2    3364193.9            0    3193596.2    65594.143    1.5670616 
     246         2.46    205378.02    689513.35    2660590.2    3350103.5            0    3182085.9    65608.674    1.5667146 
     247         2.47    204835.48    682486.36    2653561.8    3336048.1            0    3172160.6    65623.168    1.5663685 
     248         2.48       204290    675533.42    2646495.4    3322028.8            0      3161776    65637.622    1.5660236 
     249         2.49    203741.75    668648.43      2639393    3308041.4            0    3152459.8    65652.038    1.5656797 
     250          2.5    203190.93     661831.8    2632257.3    3294089.1            0    3141658.7    65666.416    1.5653369 
     251         2.51    202637.67    655079.89      2625090    3280169.9            0    3129347.3    65680.754    1.5649952 
     252         2.52    202082.17    648390.78    2617893.8    3266284.6            0      3118046    65695.052    1.5646546 
     253         2.53     201524.6    641765.19    2610670.7    3252435.9            0    3106828.2    65709.311    1.5643151 
     254         2.54    200964.65    635205.98    2603416.7    3238622.7            0      3092089    65723.529    1.5639767 
     255         2.55    200401.86    628722.78      2596126    3224848.8            0    3076229.6    65737.708    1.5636393 
     256         2.56    199836.63    622309.23    2588803.6    3211112.9            0    3066156.4    65751.845    1.5633031 
     257         2.57    199269.82    615953.23    2581460.9    3197414.1            0    3059520.3    65765.942     1.562968 
     258         2.58    198701.76    609650.71    2574101.9    3183752.6            0    3052357.5    65779.998    1.5626341 
     259         2.59    198132.47    603400.08    2566726.9      3170127            0    3044983.4    65794.013    1.5623012 
     260          2.6    197561.98    597202.45    2559336.5    3156538.9            0    3037126.1    65807.987    1.5619695 
     261         2.61    196990.14    591060.09    2551928.6    3142988.7            0    3025289.3    65821.921    1.5616388 
     262         2.62    196416.59     584980.2    2544498.5    3129478.7            0    3011350.3    65835.813    1.5613093 
     263         2.63    195841.28    578962.62    2537045.5    3116008.1            0    3000200.7    65849.665    1.5609809 
     264         2.64    195264.64    573001.43    2529575.4    3102576.8            0    2990953.9    65863.475    1.5606535 
     265         2.65    194687.16    567090.88    2522094.4    3089185.3            0    2982369.2    65877.244    1.5603273 
     266         2.66    194109.13    561227.28    2514606.2    3075833.5            0    2973502.7    65890.973    1.5600023 
     267         2.67    193530.39     555412.2    2507108.9    3062521.1            0      2962132     65904.66    1.5596783 
     268         2.68    192950.69    549651.42    2499599.1    3049250.5            0    2950749.9    65918.307    1.5593554 
     269         2.69     192369.9    543945.09    2492075.2    3036020.3            0    2939230.1    65931.913    1.5590336 
     270          2.7     191787.9    538295.67    2484535.6    3022831.3            0    2925724.9    65945.478    1.5587129 
     271         2.71    191204.55    532705.02    2476978.6    3009683.6            0      2911061    65959.002    1.5583933 
     272         2.72    190619.76    527176.26    2469402.9    2996579.1            0    2896747.3    65972.486    1.5580748 
     273         2.73    190033.62    521707.86    2461809.6    2983517.5            0      2885216    65985.929    1.5577574 
     274         2.74    189446.48    516294.15    2454203.4    2970497.6            0    2875037.9    65999.331     1.557441 
     275         2.75    188858.68     510931.5    2446588.7    2957520.2            0      2865582    66012.693    1.5571258 
     276         2.76    188270.54    505615.36    2438969.6      2944585            0    2858568.2    66026.015    1.5568116 
     277         2.77    187682.34    500340.92    2431349.7    2931690.6            0    2851640.4    66039.297    1.5564985 
     278         2.78    187093.72    495114.08    2423724.4    2918838.5            0      2838496    66052.539    1.5561864 
     279         2.79    186504.03    489946.09    2416085.2    2906031.3            0    2823589.3    66065.742    1.5558755 
     280          2.8    185913.36    484834.71    2408433.3      2893268            0    2810785.4    66078.905    1.5555655 
     281         2.81    185322.25    479772.46    2400775.8    2880548.2            0    2800431.1    66092.029    1.5552566 
     282         2.82    184731.08    474753.77    2393117.4    2867871.1            0    2790275.9    66105.114    1.5549488 
     283         2.83    184139.91    469778.38      2385459    2855237.4            0    2780398.2    66118.161    1.5546419 
     284         2.84    183548.82    464845.55    2377801.7    2842647.2            0    2771973.5    66131.168    1.5543361 
     285         2.85    182957.97     459953.1    2370147.5    2830100.6            0    2763350.5    66144.138    1.5540314 
     286         2.86    182367.56    455098.59    2362498.9    2817597.5            0    2753938.8     66157.07    1.5537276 
     287         2.87    181777.74    450279.72    2354857.9    2805137.7            0    2744333.1    66169.965    1.5534248 
     288         2.88    181188.28    445499.57    2347221.7    2792721.3            0      2731518    66182.822     1.553123 
     289         2.89    180598.76    440765.56    2339584.8    2780350.3            0    2718452.9    66195.643    1.5528222 
     290          2.9    180009.45    436074.11    2331950.6    2768024.7            0    2711776.9    66208.427    1.5525224 
     291         2.91     179421.3    431409.99    2324331.2    2755741.2            0    2710758.5    66221.174    1.5522235 
     292         2.92     178834.6    426767.61    2316730.8    2743498.4            0    2706629.8    66233.886    1.5519256 
     293         2.93    178248.36    422162.63    2309136.4      2731299            0    2693085.2    66246.563    1.5516287 
     294         2.94    177661.54    417612.24    2301534.2    2719146.5            0    2678070.2    66259.204    1.5513326 
     295         2.95    177074.28    413111.57    2293926.6    2707038.1            0    2666197.5    66271.811    1.5510375 
     296         2.96    176487.13    408653.97    2286320.2    2694974.2            0    2654707.7    66284.384    1.5507433 
     297         2.97    175900.15    404238.61    2278716.2    2682954.8            0    2642446.2    66296.923      1.55045 
     298         2.98     175313.3    399866.24    2271113.8      2670980            0    2631437.5    66309.427    1.5501577 
     299         2.99    174726.71    395534.95    2263514.7    2659049.7            0    2621957.1    66321.898    1.5498662 
     300            3    174140.61    391242.22    2255922.1    2647164.3            0      2613090    66334.336    1.5495756 
     301         3.01    173555.25    386985.28    2248338.9    2635324.2            0      2605399    66346.741    1.5492858 
     302         3.02     172970.9    382758.21    2240768.9    2623527.1            0    2600265.9    66359.114     1.548997 
     303         3.03    172387.95    378555.81      2233217    2611772.8            0    2597567.8    66371.455    1.5487089 
     304         3.04    171806.64    374375.22    2225686.4    2600061.7            0    2595392.4    66383.765    1.5484218 
     305         3.05    171226.99    370216.75    2218177.2    2588393.9            0    2592505.9    66396.044    1.5481354 
     306         3.06    170648.67    366082.43    2210685.3    2576767.8            0    2584382.1    66408.293    1.5478498 
     307         3.07    170071.02    361984.81    2203202.1    2565186.9            0    2570296.2    66420.513    1.5475651 
     308         3.08    169493.57    357930.63    2195721.5    2553652.1            0    2556571.4    66432.703    1.5472811 
     309         3.09    168916.57    353915.01    2188246.7    2542161.7            0    2545484.3    66444.864    1.5469979 
     310          3.1    168340.35    349933.48    2180781.9    2530715.4            0    2534914.9    66456.996    1.5467155 
     311         3.11    167764.69    345988.86    2173324.5    2519313.3            0    2522302.7      66469.1    1.5464338 
     312         3.12    167189.31    342085.77    2165870.8    2507956.5            0    2511445.3    66481.175     1.546153 
     313         3.13    166614.27    338222.18    2158421.4    2496643.5            0    2503096.6    66493.223    1.5458728 
     314         3.14    166039.84    334395.72    2150979.9    2485375.6            0    2496885.7    66505.243    1.5455934 
     315         3.15     165466.5    330598.87    2143552.4    2474151.2            0    2492404.4    66517.236    1.5453147 
     316         3.16    164894.74    326824.64    2136145.5    2462970.2            0    2489251.2    66529.203    1.5450368 
     317         3.17    164324.82    323069.02    2128762.4    2451831.5            0    2483448.6    66541.144    1.5447595 
     318         3.18    163756.21    319339.54    2121396.3    2440735.9            0    2472123.6    66553.059     1.544483 
     319         3.19    163188.15    315647.84    2114037.3    2429685.2            0    2459488.3    66564.949    1.5442071 
     320          3.2    162620.69    311994.16    2106686.1    2418680.2            0      2450264    66576.814    1.5439319 
     321         3.21     162054.5    308367.42    2099351.3    2407718.7            0      2444111    66588.655    1.5436573 
     322         3.22    161490.14    304759.38    2092040.2    2396799.6            0    2439009.4    66600.472    1.5433835 
     323         3.23    160927.77    301168.84      2084755    2385923.8            0    2434621.4    66612.265    1.5431102 
     324         3.24    160367.27    297595.96    2077493.9    2375089.9            0    2430751.7    66624.034    1.5428376 
     325         3.25    159808.26    294046.03    2070252.2    2364298.2            0    2424044.7    66635.782    1.5425656 
     326         3.26    159250.24    290527.05    2063023.3    2353550.3            0      2413818    66647.507    1.5422942 
     327         3.27    158692.92    287042.92    2055803.4    2342846.3            0    2403196.1     66659.21    1.5420235 
     328         3.28    158136.28    283594.27    2048592.4    2332186.6            0    2392449.8    66670.891    1.5417533 
     329         3.29    157580.52    280177.74    2041392.6    2321570.4            0    2383021.5    66682.552    1.5414837 
     330          3.3    157025.74    276790.68    2034205.7    2310996.4            0    2373109.6    66694.191    1.5412147 
     331         3.31    156471.99    273434.57    2027032.1    2300466.6            0      2363431    66705.809    1.5409462 
     332         3.32     155919.6    270103.39    2019876.2    2289979.6            0    2355426.2    66717.407    1.5406784 
     333         3.33     155368.8    266793.01    2012740.8    2279533.8            0    2344873.7    66728.985    1.5404111 
     334         3.34    154819.17    263512.48    2005620.5      2269133            0      2331803    66740.543    1.5401443 
     335         3.35    154270.45     260265.8      1998512    2258777.8            0    2322129.5    66752.081    1.5398781 
     336         3.36    153723.13    257043.24    1991421.7    2248464.9            0    2318230.7      66763.6    1.5396124 
     337         3.37    153178.05    253833.47    1984360.4    2238193.9            0    2319008.2    66775.099    1.5393473 
     338         3.38     152635.9    250625.18    1977337.1    2227962.3            0      2321090    66786.581    1.5390826 
     339         3.39    152096.79    247417.02    1970353.1    2217770.1            0    2320210.3    66798.045    1.5388185 
     340          3.4    151560.16    244216.99    1963401.3    2207618.3            0    2315072.4    66809.491    1.5385548 
     341         3.41    151025.49    241033.63    1956474.9    2197508.5            0    2308471.6     66820.92    1.5382917 
     342         3.42    150492.62    237868.58    1949571.8    2187440.3            0    2302460.5    66832.333     1.538029 
     343         3.43    149961.58    234720.93    1942692.4    2177413.3            0      2298300     66843.73    1.5377668 
     344         3.44    149432.15    231592.15    1935833.8      2167426            0    2290704.2    66855.111     1.537505 
     345         3.45    148903.55    228495.32      1928986    2157481.3            0    2277528.2    66866.476    1.5372436 
     346         3.46    148375.23     225438.3    1922141.8    2147580.1            0    2265289.6    66877.826    1.5369828 
     347         3.47    147847.62    222413.71    1915306.8    2137720.5            0    2256586.4    66889.161    1.5367223 
     348         3.48    147321.18    219414.94    1908487.1      2127902            0    2246155.8     66900.48    1.5364623 
     349         3.49    146795.68    216445.22    1901679.4    2118124.6            0    2232037.8    66911.785    1.5362027 
     350          3.5    146270.79    213510.46    1894879.6      2108390            0    2218698.2    66923.074    1.5359436 
     351         3.51    145746.88    210605.79    1888092.6    2098698.3            0    2211494.3    66934.349    1.5356848 
     352         3.52    145224.93    207715.22    1881330.9    2089046.1            0    2211692.6     66945.61    1.5354265 
     353         3.53    144705.64    204827.43    1874603.8    2079431.2            0    2211856.5    66956.856    1.5351686 
     354         3.54    144188.74    201948.67    1867907.5    2069856.2            0    2205487.1    66968.088    1.5349112 
     355         3.55     143673.5    199090.49    1861232.8    2060323.3            0    2197128.7    66979.307    1.5346541 
     356         3.56    143159.65    196253.08      1854576    2050829.1            0    2189249.7    66990.513    1.5343973 
     357         3.57    142647.18    193438.02    1847937.2    2041375.2            0    2181764.9    67001.706     1.534141 
     358         3.58     142136.2    190644.66    1841317.7    2031962.4            0    2176195.7    67012.887    1.5338851 
     359         3.59    141626.88     187868.6    1834719.6    2022588.2            0    2170215.2    67024.054    1.5336295 
     360          3.6    141118.87    185114.71    1828138.6    2013253.3            0    2159733.4     67035.21    1.5333743 
     361         3.61    140611.42    182393.75    1821564.7    2003958.5            0    2144433.1    67046.353    1.5331194 
     362         3.62    140103.86    179717.31    1814989.5    1994706.8            0    2127777.6    67057.484    1.5328649 
     363         3.63    139596.23     177082.5    1808413.4    1985495.9            0    2114336.2    67068.602    1.5326108 
     364         3.64    139089.34    174479.77    1801846.9    1976326.7            0    2106751.7    67079.709    1.5323571 
     365         3.65    138584.38    171891.89    1795305.3    1967197.2            0    2104980.8    67090.803    1.5321037 
     366         3.66    138082.27    169304.05    1788800.6    1958104.7            0      2105884    67101.885    1.5318506 
     367         3.67    137583.19    166714.73    1782335.3      1949050            0    2105490.1    67112.955     1.531598 
     368         3.68    137087.27    164122.66    1775910.8    1940033.5            0    2107951.5    67124.015    1.5313456 
     369         3.69    136594.85    161520.91    1769531.7    1931052.6            0    2111152.8    67135.064    1.5310936 
     370          3.7    136105.71    158912.56    1763195.1    1922107.7            0    2110112.8    67146.103    1.5308419 
     371         3.71     135619.2    156307.89    1756892.5    1913200.4            0      2105480    67157.131    1.5305905 
     372         3.72    135134.69    153714.47    1750615.9    1904330.4            0    2097295.5     67168.15    1.5303394 
     373         3.73    134651.58    151141.11    1744357.4    1895498.5            0    2086375.1     67179.16    1.5300886 
     374         3.74    134169.37    148594.14    1738110.6    1886704.7            0    2074309.5     67190.16    1.5298381 
     375         3.75    133687.71    146079.95    1731870.8    1877950.8            0    2059819.2     67201.15    1.5295879 
     376         3.76    133206.35    143600.49    1725635.1    1869235.5            0    2045983.9    67212.131     1.529338 
     377         3.77    132725.56    141153.39    1719406.6    1860559.9            0    2035821.3    67223.101    1.5290884 
     378         3.78    132245.91    138728.98    1713192.9    1851921.9            0    2028630.7    67234.062    1.5288391 
     379         3.79    131767.72    136322.54    1706998.1    1843320.6            0    2021010.1    67245.013    1.5285902 
     380          3.8    131291.04    133934.27      1700823    1834757.3            0    2013639.4    67255.954    1.5283415 
     381         3.81    130815.97     131563.3    1694668.6    1826231.9            0    2006534.1    67266.886    1.5280931 
     382         3.82     130342.4    129209.73    1688533.7    1817743.4            0    1999442.8    67277.808     1.527845 
     383         3.83    129870.36    126872.89    1682418.6    1809291.5            0    1994327.2    67288.721    1.5275973 
     384         3.84    129400.29     124547.8    1676329.1    1800876.9            0    1991711.4    67299.624    1.5273498 
     385         3.85    128932.57    122226.85      1670270    1792496.8            0    1989683.7    67310.518    1.5271026 
     386         3.86    128467.05    119913.23    1664239.3    1784152.5            0    1985298.1    67321.403    1.5268557 
     387         3.87    128003.31     117613.6    1658231.7    1775845.3            0    1979323.4     67332.28     1.526609 
     388         3.88    127541.16    115328.89    1652244.7    1767573.6            0    1973562.4    67343.147    1.5263627 
     389         3.89    127080.55    113059.65    1646277.8    1759337.5            0    1966767.5    67354.007    1.5261166 
     390          3.9    126621.33    110808.62    1640328.8    1751137.4            0    1957218.1    67364.857    1.5258708 
     391         3.91    126163.29    108579.02      1634395      1742974            0    1945513.2    67375.699    1.5256252 
     392         3.92    125706.43    106370.59    1628476.5    1734847.1            0      1934605    67386.532      1.52538 
     393         3.93    125251.01    104180.59    1622576.8    1726757.4            0    1926088.7    67397.356     1.525135 
     394         3.94     124797.1    102006.34    1616696.6    1718702.9            0    1918168.3    67408.172    1.5248903 
     395         3.95    124344.64     99849.31    1610835.1    1710684.4            0    1912419.6    67418.978    1.5246459 
     396         3.96    123893.85    97704.459    1604995.3    1702699.8            0    1908933.1    67429.776    1.5244017 
     397         3.97    123445.15    95568.465    1599182.6    1694751.1            0    1906673.3    67440.565    1.5241578 
     398         3.98    122998.92     93434.19    1593401.9    1686836.1            0      1904578    67451.345    1.5239142 
     399         3.99    122555.03     91302.63    1587651.5    1678954.1            0    1899032.5    67462.117    1.5236709 
     400            4    122112.91    89183.571    1581923.9    1671107.5            0    1890725.8    67472.881    1.5234278 
     401         4.01    121672.13    87082.133    1576213.9      1663296            0    1881438.7    67483.636    1.5231851 
     402         4.02    121232.83    84995.798    1570522.8    1655518.6            0    1874926.2    67494.383    1.5229425 
     403         4.03    120795.48    82917.601    1564857.2    1647774.8            0    1870196.4    67505.121    1.5227003 
     404         4.04    120360.39    80842.717    1559220.8    1640063.5            0    1864329.8    67515.851    1.5224583 
     405         4.05    119927.24    78777.097    1553609.4    1632386.5            0      1855583    67526.572    1.5222165 
     406         4.06    119495.43    76729.635    1548015.6    1624745.2            0    1846044.8    67537.285    1.5219751 
     407         4.07    119064.95    74699.329    1542438.9    1617138.2            0    1839231.7    67547.989    1.5217339 
     408         4.08    118636.05    72680.716    1536882.7    1609563.4            0    1832582.3    67558.685     1.521493 
     409         4.09    118208.73    70675.801    1531346.9    1602022.7            0    1825338.8    67569.372    1.5212524 
     410          4.1    117782.71    68687.277      1525828    1594515.3            0    1817943.3     67580.05     1.521012 
     411         4.11    117357.86    66717.796    1520324.2      1587042            0    1811852.1    67590.719    1.5207719 
     412         4.12    116934.42    64762.656    1514838.7    1579601.4            0    1808433.3     67601.38    1.5205321 
     413         4.13    116512.79    62816.495    1509376.6    1572193.1            0      1805262    67612.031    1.5202925 
     414         4.14    116092.96    60878.896    1503937.9    1564816.8            0    1799696.2    67622.675    1.5200532 
     415         4.15    115674.86    58951.869    1498521.6    1557473.5            0    1794408.4    67633.309    1.5198142 
     416         4.16    115258.63    57032.909    1493129.6    1550162.5            0    1788878.2    67643.935    1.5195755 
     417         4.17    114844.27    55121.036    1487761.7    1542882.7            0      1781552    67654.552     1.519337 
     418         4.18    114431.24    53223.171      1482411    1535634.2            0    1768238.5     67665.16    1.5190988 
     419         4.19    114018.74    51353.949    1477067.2    1528421.1            0    1752400.8    67675.759    1.5188609 
     420          4.2    113606.43    49515.841    1471725.9    1521241.8            0    1737860.3    67686.349    1.5186233 
     421         4.21    113194.52    47705.477    1466389.8    1514095.3            0      1727438    67696.928     1.518386 
     422         4.22    112783.72    45913.563      1461068    1506981.5            0    1722698.5    67707.499    1.5181489 
     423         4.23    112374.89    44127.726    1455771.7    1499899.5            0    1720841.9    67718.059    1.5179122 
     424         4.24    111968.64    42339.612    1450508.9    1492848.5            0    1719936.3    67728.609    1.5176757 
     425         4.25    111565.01    40546.963    1445280.1    1485827.1            0    1716635.9     67739.15    1.5174396 
     426         4.26    111163.54    38757.736    1440079.3      1478837            0    1710722.6     67749.68    1.5172037 
     427         4.27    110763.68    36978.209    1434899.3    1471877.5            0    1702955.9    67760.202    1.5169681 
     428         4.28    110365.05    35214.238    1429735.1    1464949.3            0    1695113.5    67770.713    1.5167328 
     429         4.29    109967.33    33468.697    1424582.8    1458051.5            0    1686238.6    67781.214    1.5164979 
     430          4.3    109570.25    31746.307    1419438.8    1451185.2            0    1676529.4    67791.705    1.5162632 
     431         4.31    109173.84    30047.631    1414303.5    1444351.1            0    1668829.4    67802.186    1.5160288 
     432         4.32     108778.5    28365.663      1409182    1437547.6            0    1663292.6    67812.656    1.5157947 
     433         4.33    108384.65    26695.158    1404079.8    1430774.9            0    1659181.2    67823.116    1.5155609 
     434         4.34    107992.55     25031.68    1399000.4    1424032.1            0    1655156.4    67833.566    1.5153275 
     435         4.35    107602.28    23375.356    1393944.5    1417319.9            0    1650938.3    67844.005    1.5150943 
     436         4.36    107213.76    21725.082    1388911.4    1410636.5            0    1645993.1    67854.433    1.5148615 
     437         4.37    106826.91    20083.967      1383900    1403983.9            0    1641571.5    67864.851    1.5146289 
     438         4.38    106441.91    18447.652    1378912.4      1397360            0    1639900.5    67875.258    1.5143967 
     439         4.39    106059.01    16812.291      1373952    1390764.3            0    1639156.8    67885.654    1.5141648 
     440          4.4    105678.28    15177.965    1369019.9    1384197.9            0    1637017.2     67896.04    1.5139331 
     441         4.41    105299.75    13543.897    1364116.2    1377660.1            0      1634925    67906.416    1.5137018 
     442         4.42    104923.34    11909.816      1359240    1371149.8            0    1630617.2    67916.781    1.5134708 
     443         4.43    104548.62    10283.088    1354385.6    1364668.7            0      1623723    67927.136    1.5132401 
     444         4.44    104175.23     8668.839    1349548.5    1358217.4            0    1617432.4     67937.48    1.5130097 
     445         4.45    103803.26    7064.9301    1344729.7    1351794.7            0    1612887.5    67947.813    1.5127796 
     446         4.46    103432.75    5470.1697    1339929.9    1345400.1            0    1607366.6    67958.136    1.5125498 
     447         4.47    103063.45    3888.5007    1335145.9    1339034.4            0    1600343.3    67968.448    1.5123203 
     448         4.48    102695.27    2320.8494    1330376.2      1332697            0    1594050.6    67978.749    1.5120912 
     449         4.49    102328.23    766.83145    1325621.3    1326388.1            0    1586803.1    67989.039    1.5118623 
     450          4.5    101962.28   -772.32648    1320880.6    1320108.3            0      1579587    67999.317    1.5116338 
     451         4.51    101597.51   -2298.6847    1316155.1    1313856.4            0    1573263.5    68009.585    1.5114056 
     452         4.52    101234.14    -3814.894    1311447.9      1307633            0    1568764.2    68019.841    1.5111777 
     453         4.53    100872.47   -5325.4678    1306762.6    1301437.1            0    1566328.5    68030.085    1.5109501 
     454         4.54    100512.54   -6832.5784    1302099.7    1295267.2            0    1563238.3    68040.318    1.5107229 
     455         4.55    100154.15   -8331.7175    1297456.9    1289125.2            0    1559173.2    68050.539     1.510496 
     456         4.56    99797.247   -9822.6347    1292833.5    1283010.8            0    1555184.6    68060.749    1.5102694 
     457         4.57    99441.848   -11305.517    1288229.4    1276923.9            0    1550101.2    68070.947    1.5100431 
     458         4.58     99087.89   -12780.469      1283644    1270863.6            0    1544558.6    68081.133    1.5098172 
     459         4.59    98735.291    -14246.16    1279076.2    1264830.1            0    1538219.7    68091.308    1.5095916 
     460          4.6    98383.885   -15700.916    1274523.9      1258823            0      1530945     68101.47    1.5093663 
     461         4.61    98033.466   -17140.574    1269984.4    1252843.8            0    1522322.2    68111.621    1.5091414 
     462         4.62    97683.966   -18564.247    1265456.8    1246892.5            0    1514394.5    68121.759    1.5089168 
     463         4.63    97335.562   -19975.605    1260943.3    1240967.7            0    1508061.3    68131.885    1.5086925 
     464         4.64    96988.415   -21376.197    1256446.2      1235070            0    1501813.2    68141.998    1.5084686 
     465         4.65    96642.523   -22766.698    1251965.3    1229198.6            0    1495504.2    68152.099     1.508245 
     466         4.66    96297.857   -24146.548    1247500.3    1223353.7            0    1489335.2    68162.187    1.5080218 
     467         4.67    95954.423   -25516.433    1243051.2    1217534.8            0    1483136.7    68172.262     1.507799 
     468         4.68    95612.247   -26875.418    1238618.5      1211743            0    1476954.9    68182.323    1.5075765 
     469         4.69    95271.355   -28224.647    1234202.3    1205977.7            0    1470790.1    68192.372    1.5073543 
     470          4.7    94931.773   -29565.588    1229803.2    1200237.6            0    1464998.1    68202.407    1.5071325 
     471         4.71    94593.542   -30897.384    1225421.6    1194524.2            0    1459586.9    68212.429    1.5069111 
     472         4.72    94256.759   -32221.996    1221058.6    1188836.7            0    1455012.5    68222.437      1.50669 
     473         4.73     93921.57   -33542.639    1216716.4    1183173.8            0    1451096.1    68232.432    1.5064693 
     474         4.74    93588.085   -34859.894    1212396.3    1177536.4            0    1447464.7    68242.413     1.506249 
     475         4.75    93256.291   -36175.007      1208098      1171923            0      1443584    68252.381     1.506029 
     476         4.76    92926.116   -37485.959    1203820.7    1166334.7            0    1440129.1    68262.334    1.5058094 
     477         4.77    92597.405   -38791.441    1199562.4    1160770.9            0    1435174.9    68272.274    1.5055902 
     478         4.78    92269.873   -40086.866    1195319.3    1155232.5            0    1429146.5      68282.2    1.5053713 
     479         4.79    91943.441   -41371.367    1191090.5    1149719.2            0    1424351.8    68292.112    1.5051528 
     480          4.8    91618.325   -42648.551    1186878.8    1144230.2            0    1421276.9     68302.01    1.5049347 
     481         4.81     91294.79   -43921.925    1182687.5    1138765.6            0    1419631.4    68311.894     1.504717 
     482         4.82    90973.082   -45195.373    1178519.9    1133324.6            0    1419257.1    68321.764    1.5044996 
     483         4.83    90653.384   -46471.621    1174378.4    1127906.8            0    1418363.7     68331.62    1.5042826 
     484         4.84    90335.631   -47749.858      1170262    1122512.2            0    1415162.5    68341.461     1.504066 
     485         4.85    90019.397   -49024.453    1166165.3    1117140.9            0    1408502.3    68351.289    1.5038497 
     486         4.86    89704.176   -50287.528    1162081.8    1111794.2            0    1400248.3    68361.103    1.5036338 
     487         4.87    89389.673   -51535.379    1158007.5    1106472.1            0    1391490.5    68370.902    1.5034183 
     488         4.88     89075.79   -52766.347    1153941.3    1101174.9            0    1383368.7    68380.686    1.5032032 
     489         4.89    88762.728   -53983.813    1149885.7    1095901.9            0    1377894.3    68390.456    1.5029884 
     490          4.9    88450.895   -55194.069      1145846    1090651.9            0    1374592.8    68400.211    1.5027741 
     491         4.91    88140.477   -56400.502    1141824.7    1085424.2            0    1370706.3    68409.951    1.5025601 
     492         4.92    87831.439    -57600.22    1137821.2      1080221            0    1366871.6    68419.676    1.5023466 
     493         4.93    87523.851   -58795.849    1133836.5    1075040.7            0    1363681.6    68429.386    1.5021334 
     494         4.94    87217.806   -59988.772    1129871.8    1069883.1            0      1360687    68439.081    1.5019206 
     495         4.95    86913.314    -61178.95    1125927.3    1064748.3            0      1357770    68448.761    1.5017082 
     496         4.96    86610.307   -62366.113    1122001.9    1059635.8            0    1354472.8    68458.426    1.5014962 
     497         4.97    86308.661   -63549.016    1118094.2    1054545.2            0      1350465    68468.076    1.5012846 
     498         4.98    86008.271   -64725.612    1114202.8    1049477.2            0    1346183.1     68477.71    1.5010733 
     499         4.99    85709.128   -65896.634    1110327.5    1044430.9            0    1342189.8     68487.33    1.5008625 
     500            5    85411.285   -67061.232    1106469.1    1039407.8            0    1338264.2    68496.934    1.5006521 
     501         5.01    85114.752    -68220.63    1102627.6      1034407            0    1334043.1    68506.522     1.500442 
     502         5.02    84819.509   -69374.751    1098802.9    1029428.1            0    1329806.7    68516.095    1.5002324 
     503         5.03    84525.484   -70523.069    1094993.9    1024470.8            0    1324288.2    68525.653    1.5000232 
     504         5.04    84232.521   -71663.364    1091198.7    1019535.3            0    1317937.6    68535.195    1.4998143 
     505         5.05    83940.556   -72794.069    1087416.4    1014622.3            0    1311702.9    68544.721    1.4996059 
     506         5.06    83649.579   -73915.647    1083646.9    1009731.2            0    1305413.1    68554.231    1.4993978 
     507         5.07    83359.549   -75026.921    1079889.7    1004862.7            0      1299137    68563.726    1.4991902 
     508         5.08    83070.461   -76128.663    1076144.6      1000016            0      1293125    68573.204     1.498983 
     509         5.09    82782.338   -77221.828    1072412.1    995190.28            0    1287375.9    68582.666    1.4987762 
     510          5.1    82495.206    -78306.02    1068692.4    990386.41            0    1281927.5    68592.112    1.4985698 
     511         5.11    82209.101   -79382.263    1064986.1    985603.79            0    1276672.2    68601.541    1.4983638 
     512         5.12    81924.049   -80450.295    1061293.3    980843.03            0    1271536.9    68610.953    1.4981582 
     513         5.13    81640.036   -81510.822    1057614.1    976103.23            0    1266292.6    68620.349    1.4979531 
     514         5.14    81356.995   -82563.063    1053947.4    971384.31            0    1260960.3    68629.729    1.4977484 
     515         5.15     81074.88    -83605.84    1050292.7    966686.84            0    1255814.4    68639.091    1.4975441 
     516         5.16     80793.71   -84639.635    1046650.2     962010.6            0    1250996.1    68648.437    1.4973402 
     517         5.17     80513.54   -85665.672    1043020.7    957355.07            0    1246435.1    68657.765    1.4971368 
     518         5.18     80234.43   -86684.905      1039405    952720.08            0    1242009.1    68667.077    1.4969338 
     519         5.19    79956.416   -87697.353    1035803.4    948106.08            0    1237554.9    68676.371    1.4967312 
     520          5.2    79679.499   -88703.568    1032216.1    943512.51            0    1233057.6    68685.648     1.496529 
     521         5.21    79403.691   -89703.266    1028643.1    938939.83            0    1228847.9    68694.908    1.4963273 
     522         5.22    79129.029   -90698.067      1025085    934386.88            0    1225020.3    68704.151     1.496126 
     523         5.23    78855.559   -91687.944    1021542.3    929854.32            0    1221743.1    68713.377    1.4959251 
     524         5.24    78583.348   -92674.821    1018015.9    925341.06            0    1219074.8    68722.585    1.4957247 
     525         5.25    78312.474   -93659.306    1014506.8     920847.5            0    1216947.3    68731.775    1.4955247 
     526         5.26    78042.989   -94642.284    1011015.7    916373.46            0    1214771.3    68740.949    1.4953251 
     527         5.27    77774.867   -95622.981    1007542.3    911919.35            0    1211671.6    68750.105     1.495126 
     528         5.28    77508.012   -96600.907    1004085.3    907484.42            0    1207851.1    68759.243    1.4949272 
     529         5.29    77242.316   -97574.042    1000643.3    903069.31            0    1203482.4    68768.365     1.494729 
     530          5.3    76977.615   -98541.363    997214.25    898672.89            0      1197896    68777.468    1.4945311 
     531         5.31    76713.705   -99499.033     993795.4    894296.37            0    1191650.1    68786.555    1.4943337 
     532         5.32    76450.481    -100446.1    990385.43    889939.33            0    1185547.4    68795.624    1.4941367 
     533         5.33    76187.948   -101381.99    986984.43    885602.44            0      1179994    68804.674    1.4939402 
     534         5.34    75926.154   -102308.44    983592.99    881284.55            0    1174885.8    68813.708     1.493744 
     535         5.35    75665.129   -103225.43    980211.52    876986.09            0    1170114.1    68822.723    1.4935484 
     536         5.36    75404.891   -104133.59    976840.24    872706.65            0    1165617.4     68831.72    1.4933531 
     537         5.37    75145.495   -105033.72    973479.86    868446.14            0    1161650.5    68840.699    1.4931584 
     538         5.38    74887.038   -105926.46    970131.66     864205.2            0    1158217.1     68849.66     1.492964 
     539         5.39    74629.604   -106814.06    966796.71    859982.65            0    1154736.2    68858.603    1.4927701 
     540          5.4    74373.189   -107696.46    963474.94    855778.48            0      1150593    68867.528    1.4925767 
     541         5.41     74117.68   -108572.22    960164.94    851592.72            0    1145855.2    68876.435    1.4923837 
     542         5.42    73862.939   -109438.76    956864.86    847426.11            0    1140818.9    68885.324    1.4921911 
     543         5.43    73608.858   -110295.32    953573.35    843278.02            0    1135777.9    68894.194     1.491999 
     544         5.44    73355.391   -111141.42    950289.78    839148.36            0      1130890    68903.046    1.4918073 
     545         5.45    73102.528   -111977.08    947014.04    835036.97            0    1126023.9    68911.879    1.4916161 
     546         5.46    72850.291   -112802.14    943746.41    830944.27            0    1121148.4    68920.695    1.4914253 
     547         5.47    72598.703   -113617.42    940487.19    826869.77            0    1116003.9    68929.491    1.4912349 
     548         5.48    72347.756   -114422.87    937236.27     822813.4            0    1110586.1    68938.269    1.4910451 
     549         5.49    72097.451      -115218    933993.67    818775.67            0      1105147    68947.028    1.4908556 
     550          5.5    71847.811   -116003.21    930759.69    814756.47            0    1099800.5    68955.769    1.4906667 
     551         5.51    71598.836    -116779.2    927534.32    810755.12            0    1094421.4    68964.491    1.4904781 
     552         5.52    71350.517   -117545.71    924317.44    806771.73            0    1089300.1    68973.194    1.4902901 
     553         5.53    71102.871   -118302.75    921109.29    802806.54            0    1084628.2    68981.878    1.4901025 
     554         5.54     70855.88   -119050.58    917909.62    798859.03            0    1079582.7    68990.543    1.4899153 
     555         5.55    70609.428   -119787.62    914716.93    794929.31            0    1073770.8    68999.189    1.4897286 
     556         5.56    70363.389   -120512.03    911529.59    791017.56            0    1067628.4    69007.815    1.4895424 
     557         5.57    70117.699   -121222.67    908346.78    787124.11            0    1061460.2    69016.423    1.4893566 
     558         5.58    69872.354   -121919.74    905168.43    783248.69            0    1055354.2    69025.011    1.4891713 
     559         5.59    69627.372    -122604.1    901994.79    779390.68            0    1049313.7     69033.58    1.4889865 
     560          5.6    69382.769   -123275.74    898826.05    775550.31            0    1043235.5     69042.13    1.4888021 
     561         5.61    69138.543   -123934.24     895662.2    771727.96            0    1037118.3    69050.659    1.4886182 
     562         5.62    68894.679   -124579.59    892503.04    767923.45            0    1030924.6     69059.17    1.4884347 
     563         5.63    68651.157   -125211.55    889348.31    764136.75            0    1024673.8     69067.66    1.4882517 
     564         5.64    68407.962   -125830.35    886197.81    760367.46            0    1018389.9    69076.131    1.4880692 
     565         5.65    68165.095   -126435.52    883051.58    756616.06            0    1012090.7    69084.581    1.4878872 
     566         5.66    67922.574   -127027.52    879909.81    752882.29            0    1005689.4    69093.012    1.4877057 
     567         5.67    67680.421   -127607.39    876772.82    749165.42            0    999159.53    69101.423    1.4875246 
     568         5.68    67438.602   -128174.01    873640.14    745466.13            0    992588.05    69109.813     1.487344 
     569         5.69    67197.014   -128726.12    870510.46    741784.34            0    986024.07    69118.183    1.4871639 
     570          5.7    66955.583   -129262.62    867382.83    738120.21            0    979471.65    69126.533    1.4869842 
     571         5.71    66714.286   -129783.69    864256.92    734473.23            0    972792.54    69134.862    1.4868051 
     572         5.72     66473.13   -130289.12    861132.85    730843.73            0    966016.18    69143.171    1.4866264 
     573         5.73    66232.138   -130779.05    858010.88    727231.83            0    959102.55    69151.459    1.4864483 
     574         5.74    65991.322   -131253.99    854891.21    723637.22            0    952088.29    69159.727    1.4862706 
     575         5.75    65750.682   -131713.82    851773.82    720059.99            0    944963.19    69167.973    1.4860934 
     576         5.76    65510.199   -132158.37    848658.46    716500.09            0    937746.41    69176.199    1.4859167 
     577         5.77     65269.84   -132587.19    845544.71    712957.51            0     930478.7    69184.403    1.4857404 
     578         5.78    65029.559   -132999.31    842431.96    709432.65            0    923157.37    69192.586    1.4855647 
     579         5.79    64789.315   -133395.07    839319.69    705924.62            0    915810.19    69200.748    1.4853895 
     580          5.8    64549.088    -133773.6    836207.65    702434.05            0    908479.54    69208.889    1.4852148 
     581         5.81    64308.881   -134135.16    833095.87     698960.7            0    901165.49    69217.008    1.4850406 
     582         5.82    64068.719   -134480.53    829984.66    695504.13            0     893898.5    69225.106    1.4848669 
     583         5.83    63828.652   -134809.61    826874.69    692065.08            0    886849.86    69233.182    1.4846937 
     584         5.84    63588.758   -135123.86    823766.95    688643.09            0    880008.57    69241.236     1.484521 
     585         5.85    63349.121   -135424.25    820662.56     685238.3            0    873454.52    69249.268    1.4843488 
     586         5.86    63109.834    -135712.7    817562.68    681849.98            0    867245.92    69257.278    1.4841771 
     587         5.87     62870.98   -135989.75    814468.43    678478.68            0    861373.73    69265.267    1.4840059 
     588         5.88    62632.647   -136256.44    811380.92    675124.48            0    855811.01    69273.233    1.4838353 
     589         5.89    62394.923   -136514.09     808301.3    671787.22            0    850575.54    69281.177    1.4836651 
     590          5.9     62157.89   -136764.07    805230.63    668466.56            0    845613.86    69289.099    1.4834955 
     591         5.91    61921.625   -137007.84    802169.91    665162.07            0    840861.19    69296.999    1.4833264 
     592         5.92    61686.183   -137246.12    799119.85    661873.73            0    836246.84    69304.877    1.4831578 
     593         5.93    61451.555   -137478.64    796080.35    658601.71            0    831616.99    69312.732    1.4829897 
     594         5.94    61217.692   -137704.77    793050.75    655345.97            0    827019.47    69320.566    1.4828221 
     595         5.95    60984.579   -137923.91    790030.86    652106.95            0    822599.64    69328.377     1.482655 
     596         5.96    60752.262   -138137.33    787021.29    648883.96            0    818470.94    69336.166    1.4824885 
     597         5.97    60520.786    -138345.8    784022.61    645676.81            0    814532.82    69343.933    1.4823224 
     598         5.98    60290.176   -138549.45    781035.15     642485.7            0    810860.64    69351.678    1.4821569 
     599         5.99    60060.479   -138749.28    778059.51    639310.23            0    807554.45      69359.4    1.4819918 
     600            6    59831.754   -138945.52    775096.46    636150.94            0    804608.86    69367.101    1.4818273 
     601         6.01    59604.024    -139139.3    772146.32    633007.02            0    801668.61     69374.78    1.4816633 
     602         6.02    59377.278   -139330.35    769208.92    629878.57            0    798741.18    69382.436    1.4814998 
     603         6.03    59151.521   -139518.42    766284.32     626765.9            0    795981.25    69390.071    1.4813368 
     604         6.04    58926.806   -139704.99    763373.23    623668.24            0    793570.84    69397.684    1.4811743 
     605         6.05    58703.218   -139890.43    760476.73     620586.3            0    791510.22    69405.275    1.4810123 
     606         6.06    58480.861   -140077.04    757596.19    617519.16            0    789936.66    69412.844    1.4808508 
     607         6.07    58259.865   -140265.73    754733.28    614467.55            0    788904.02    69420.392    1.4806898 
     608         6.08    58040.341   -140459.12    751889.43    611430.31            0    788295.49    69427.918    1.4805293 
     609         6.09    57822.379   -140657.63    749065.82     608408.2            0     788057.7    69435.423    1.4803693 
     610          6.1     57606.04   -140863.46    746263.23    605399.77            0    788020.35    69442.907    1.4802097 
     611         6.11    57391.352   -141076.12    743482.04    602405.91            0    788105.76    69450.369    1.4800507 
     612         6.12    57178.309   -141295.94    740722.15    599426.21            0    788081.99    69457.811    1.4798921 
     613         6.13    56966.888   -141522.45    737983.27    596460.82            0    788170.09    69465.231     1.479734 
     614         6.14    56757.078   -141755.68    735265.26    593509.59            0    788326.33    69472.632    1.4795764 
     615         6.15    56548.891   -141996.21    732568.29    590572.08            0    788784.07    69480.011    1.4794192 
     616         6.16    56342.365   -142244.02    729892.83    587648.82            0     789592.1     69487.37    1.4792626 
     617         6.17     56137.54   -142500.79     727239.4    584738.61            0    790742.17     69494.71    1.4791063 
[...]
    9853        98.53    360.95339   -411016.01     4676.007      -406340            0    15036.021    79264.308    1.2968014 
    9854        98.54    360.94202   -411018.11    4675.8597   -406342.25            0     15073.66     79264.73    1.2967945 
    9855        98.55    360.93163   -411020.14     4675.725   -406344.42            0    15161.281    79265.152    1.2967876 
    9856        98.56    360.92197   -411022.29    4675.5999   -406346.69            0    15133.516    79265.574    1.2967807 
    9857        98.57    360.91352   -411024.36    4675.4904   -406348.87            0    15142.956    79265.996    1.2967738 
    9858        98.58    360.90577   -411026.47      4675.39   -406351.08            0    15146.444    79266.418    1.2967669 
    9859        98.59    360.89863   -411028.63    4675.2975   -406353.33            0    15114.117    79266.841      1.29676 
    9860         98.6    360.89268   -411030.77    4675.2205   -406355.55            0    15102.125    79267.263    1.2967531 
    9861        98.61    360.88797   -411033.01    4675.1595   -406357.85            0    15079.829    79267.686    1.2967461 
    9862        98.62    360.88436   -411035.15    4675.1128   -406360.04            0    15107.322    79268.108    1.2967392 
    9863        98.63    360.88178   -411037.44    4675.0793   -406362.36            0    15062.392    79268.531    1.2967323 
    9864        98.64    360.87989   -411039.68    4675.0548   -406364.62            0     14999.59    79268.954    1.2967254 
    9865        98.65    360.87834    -411041.9    4675.0348   -406366.87            0    14973.386    79269.377    1.2967185 
    9866        98.66    360.87736   -411044.31    4675.0221   -406369.29            0    14834.712      79269.8    1.2967116 
    9867        98.67    360.87708   -411046.53    4675.0184   -406371.51            0    14764.116    79270.223    1.2967046 
    9868        98.68    360.87704   -411048.83    4675.0179   -406373.81            0    14757.488    79270.646    1.2966977 
    9869        98.69      360.877    -411051.2    4675.0174   -406376.18            0    14686.917     79271.07    1.2966908 
    9870         98.7    360.87731   -411053.53    4675.0214   -406378.51            0    14606.788    79271.493    1.2966839 
    9871        98.71    360.87782   -411055.75    4675.0279   -406380.72            0    14519.777    79271.917    1.2966769 
    9872        98.72    360.87737   -411058.07    4675.0222   -406383.05            0     14514.16     79272.34      1.29667 
    9873        98.73    360.87587    -411060.3    4675.0027    -406385.3            0    14443.281    79272.764    1.2966631 
    9874        98.74    360.87409    -411062.7    4674.9796   -406387.72            0    14420.569    79273.187    1.2966561 
    9875        98.75    360.87107   -411064.81    4674.9405   -406389.87            0    14419.948    79273.611    1.2966492 
    9876        98.76    360.86622   -411067.02    4674.8777   -406392.14            0    14336.634    79274.035    1.2966423 
    9877        98.77    360.86059   -411069.13    4674.8047   -406394.32            0    14280.456    79274.459    1.2966353 
    9878        98.78    360.85494   -411071.37    4674.7316   -406396.63            0    14199.952    79274.883    1.2966284 
    9879        98.79    360.84877   -411073.74    4674.6516   -406399.08            0    14178.099    79275.307    1.2966215 
    9880         98.8     360.8424   -411075.99    4674.5692   -406401.42            0    14096.134    79275.731    1.2966145 
    9881        98.81    360.83643   -411078.16    4674.4919   -406403.67            0    14056.592    79276.156    1.2966076 
    9882        98.82    360.83093   -411080.41    4674.4205   -406405.98            0    13984.463     79276.58    1.2966007 
    9883        98.83      360.826   -411082.52    4674.3567   -406408.16            0    13935.278    79277.004    1.2965937 
    9884        98.84     360.8217   -411084.78    4674.3009   -406410.48            0    13872.579    79277.429    1.2965868 
    9885        98.85     360.8172    -411086.8    4674.2427   -406412.56            0    13898.288    79277.853    1.2965798 
    9886        98.86    360.81266   -411089.17    4674.1839   -406414.99            0    13833.638    79278.278    1.2965729 
    9887        98.87    360.80898   -411091.25    4674.1361   -406417.11            0    13772.466    79278.702     1.296566 
    9888        98.88    360.80617   -411093.53    4674.0997   -406419.43            0    13723.725    79279.127     1.296559 
    9889        98.89    360.80445   -411095.78    4674.0775    -406421.7            0    13678.903    79279.551    1.2965521 
    9890         98.9    360.80359   -411098.01    4674.0663   -406423.95            0    13652.316    79279.976    1.2965451 
    9891        98.91    360.80319   -411100.32    4674.0611   -406426.26            0    13669.661    79280.401    1.2965382 
    9892        98.92    360.80323   -411102.58    4674.0617   -406428.52            0    13596.552    79280.825    1.2965312 
    9893        98.93    360.80375   -411104.97    4674.0684    -406430.9            0    13584.979     79281.25    1.2965243 
    9894        98.94    360.80434   -411107.09    4674.0761   -406433.01            0      13591.2    79281.675    1.2965173 
    9895        98.95    360.80474    -411109.4    4674.0813   -406435.31            0    13595.348      79282.1    1.2965104 
    9896        98.96    360.80489   -411111.56    4674.0832   -406437.48            0     13591.22    79282.525    1.2965034 
    9897        98.97    360.80456   -411113.78    4674.0789    -406439.7            0    13571.806     79282.95    1.2964965 
    9898        98.98    360.80376   -411116.09    4674.0686   -406442.02            0    13478.628    79283.375    1.2964895 
    9899        98.99    360.80167   -411118.25    4674.0414   -406444.21            0    13490.437      79283.8    1.2964826 
    9900           99    360.79807   -411120.42    4673.9948   -406446.43            0    13498.024    79284.225    1.2964756 
    9901        99.01    360.79353   -411122.58    4673.9361   -406448.64            0    13527.438     79284.65    1.2964687 
    9902        99.02    360.78798   -411124.72    4673.8641   -406450.86            0    13519.763    79285.075    1.2964617 
    9903        99.03    360.78204   -411126.93    4673.7872   -406453.14            0    13480.607      79285.5    1.2964548 
    9904        99.04    360.77603   -411129.24    4673.7093   -406455.53            0    13446.536    79285.925    1.2964478 
    9905        99.05    360.76985   -411131.45    4673.6292   -406457.82            0    13418.222    79286.351    1.2964409 
    9906        99.06    360.76223   -411133.78    4673.5306   -406460.25            0    13321.119    79286.776    1.2964339 
    9907        99.07    360.75307   -411136.02    4673.4118   -406462.61            0    13296.394    79287.201     1.296427 
    9908        99.08    360.74342   -411138.13    4673.2869   -406464.84            0    13282.744    79287.626      1.29642 
    9909        99.09    360.73327   -411140.28    4673.1554   -406467.13            0    13289.785    79288.052    1.2964131 
    9910         99.1    360.72258   -411142.32    4673.0169    -406469.3            0    13318.672    79288.477    1.2964061 
    9911        99.11    360.71128    -411144.4    4672.8705   -406471.52            0     13365.58    79288.903    1.2963991 
    9912        99.12    360.69933   -411146.43    4672.7157   -406473.71            0    13403.159    79289.328    1.2963922 
    9913        99.13    360.68618   -411148.56    4672.5454   -406476.02            0     13472.95    79289.753    1.2963852 
    9914        99.14     360.6715   -411150.75    4672.3552   -406478.39            0    13477.917    79290.179    1.2963783 
    9915        99.15     360.6555   -411152.79    4672.1479   -406480.64            0    13483.216    79290.604    1.2963713 
    9916        99.16    360.63852   -411154.81    4671.9279   -406482.89            0    13520.716     79291.03    1.2963644 
    9917        99.17    360.62049   -411156.82    4671.6944   -406485.12            0    13508.737    79291.456    1.2963574 
    9918        99.18    360.60112   -411158.75    4671.4435    -406487.3            0    13609.142    79291.881    1.2963504 
    9919        99.19    360.58033   -411160.97    4671.1742    -406489.8            0    13575.155    79292.307    1.2963435 
    9920         99.2    360.55747   -411163.03     4670.878   -406492.15            0    13603.776    79292.733    1.2963365 
    9921        99.21    360.53246   -411165.02     4670.554   -406494.46            0    13625.465    79293.158    1.2963296 
    9922        99.22    360.50589   -411166.92    4670.2097   -406496.71            0    13615.217    79293.584    1.2963226 
    9923        99.23    360.47783    -411168.8    4669.8463   -406498.95            0    13616.951     79294.01    1.2963156 
    9924        99.24    360.44768   -411170.58    4669.4557   -406501.13            0    13640.613    79294.436    1.2963087 
    9925        99.25     360.4157   -411172.61    4669.0414   -406503.57            0    13622.957    79294.862    1.2963017 
    9926        99.26    360.38281   -411174.48    4668.6153   -406505.87            0     13643.03    79295.288    1.2962948 
    9927        99.27    360.34827   -411176.34    4668.1678   -406508.17            0    13653.178    79295.714    1.2962878 
    9928        99.28    360.31195   -411177.96    4667.6974   -406510.27            0    13697.779     79296.14    1.2962808 
    9929        99.29    360.27455   -411179.63    4667.2129   -406512.41            0    13774.809    79296.566    1.2962739 
    9930         99.3    360.23616   -411181.55    4666.7156   -406514.83            0    13733.225    79296.992    1.2962669 
    9931        99.31      360.197   -411183.44    4666.2082   -406517.23            0    13756.237    79297.418    1.2962599 
    9932        99.32    360.15732   -411185.14    4665.6942   -406519.45            0    13758.216    79297.844     1.296253 
    9933        99.33    360.11738   -411186.85    4665.1768   -406521.67            0    13762.224     79298.27     1.296246 
    9934        99.34    360.07722   -411188.61    4664.6566   -406523.95            0    13779.027    79298.697     1.296239 
    9935        99.35    360.03674    -411190.3    4664.1321   -406526.17            0    13729.614    79299.123    1.2962321 
    9936        99.36    359.99609   -411191.98    4663.6055   -406528.37            0    13725.152    79299.549    1.2962251 
    9937        99.37    359.95533   -411193.74    4663.0775   -406530.67            0    13662.274    79299.976    1.2962181 
    9938        99.38    359.91421   -411195.83    4662.5448   -406533.29            0    13597.244    79300.402    1.2962112 
    9939        99.39    359.87306   -411197.57    4662.0117   -406535.56            0    13564.865    79300.829    1.2962042 
    9940         99.4    359.83235   -411199.32    4661.4843   -406537.84            0    13557.811    79301.255    1.2961972 
    9941        99.41    359.79228      -411201    4660.9652   -406540.04            0     13542.87    79301.682    1.2961902 
    9942        99.42    359.75292   -411202.73    4660.4554   -406542.27            0    13539.391    79302.109    1.2961833 
    9943        99.43    359.71439   -411204.42    4659.9562   -406544.46            0    13534.178    79302.535    1.2961763 
    9944        99.44    359.67633   -411206.08    4659.4631   -406546.62            0    13509.802    79302.962    1.2961693 
    9945        99.45    359.63856   -411207.79    4658.9739   -406548.82            0    13478.736    79303.389    1.2961623 
    9946        99.46    359.60168   -411209.45    4658.4961   -406550.96            0    13484.257    79303.815    1.2961554 
    9947        99.47    359.56596   -411211.33    4658.0334   -406553.29            0    13431.797    79304.242    1.2961484 
    9948        99.48    359.53113   -411213.04    4657.5821   -406555.46            0     13443.62    79304.669    1.2961414 
    9949        99.49    359.49767   -411214.72    4657.1487   -406557.57            0    13392.314    79305.096    1.2961344 
    9950         99.5    359.46634    -411216.5    4656.7428   -406559.76            0    13373.181    79305.523    1.2961275 
    9951        99.51    359.43732   -411218.39    4656.3669   -406562.02            0    13344.265     79305.95    1.2961205 
    9952        99.52    359.41055    -411220.2    4656.0201   -406564.18            0    13323.858    79306.377    1.2961135 
    9953        99.53    359.38617    -411222.1    4655.7042   -406566.39            0    13281.358    79306.804    1.2961065 
    9954        99.54    359.36436    -411224.2    4655.4217   -406568.78            0    13212.245    79307.231    1.2960995 
    9955        99.55    359.34491   -411226.27    4655.1697    -406571.1            0     13138.02    79307.658    1.2960926 
    9956        99.56    359.32796    -411228.3    4654.9501   -406573.35            0    13042.144    79308.085    1.2960856 
    9957        99.57      359.314   -411230.54    4654.7693   -406575.77            0    12979.118    79308.512    1.2960786 
    9958        99.58     359.3032    -411232.5    4654.6294   -406577.87            0     12944.87    79308.939    1.2960716 
    9959        99.59    359.29568   -411234.49     4654.532   -406579.95            0    12874.332    79309.366    1.2960647 
    9960         99.6    359.29178   -411236.69    4654.4815   -406582.21            0    12826.789    79309.793    1.2960577 
    9961        99.61    359.29155   -411238.93    4654.4785   -406584.45            0    12758.452     79310.22    1.2960507 
    9962        99.62    359.29495   -411241.26    4654.5226   -406586.74            0    12664.922    79310.647    1.2960437 
    9963        99.63    359.30155   -411243.54     4654.608   -406588.93            0    12678.466    79311.074    1.2960367 
    9964        99.64    359.31084   -411245.84    4654.7284   -406591.11            0    12599.514    79311.501    1.2960298 
    9965        99.65    359.32355   -411248.26     4654.893   -406593.37            0    12537.855    79311.928    1.2960228 
    9966        99.66     359.3403   -411250.63      4655.11   -406595.52            0    12454.996    79312.356    1.2960158 
    9967        99.67    359.36115   -411253.13    4655.3801   -406597.75            0    12374.805    79312.783    1.2960088 
    9968        99.68    359.38609   -411255.65    4655.7032   -406599.95            0    12308.665     79313.21    1.2960018 
    9969        99.69    359.41494    -411258.3    4656.0769   -406602.22            0    12241.058    79313.637    1.2959949 
    9970         99.7    359.44743    -411261.1    4656.4978   -406604.61            0    12128.836    79314.064    1.2959879 
    9971        99.71     359.4833   -411263.81    4656.9625   -406606.85            0     12038.18    79314.491    1.2959809 
    9972        99.72    359.52237   -411266.51    4657.4686   -406609.04            0    11970.739    79314.918    1.2959739 
    9973        99.73    359.56411   -411269.35    4658.0094   -406611.34            0    11908.395    79315.345     1.295967 
    9974        99.74    359.60807   -411272.09    4658.5789   -406613.51            0    11782.555    79315.772      1.29596 
    9975        99.75    359.65343   -411274.79    4659.1665   -406615.62            0    11709.842    79316.198     1.295953 
    9976        99.76    359.69965   -411277.43    4659.7652   -406617.66            0    11658.758    79316.625     1.295946 
    9977        99.77    359.74693   -411280.24    4660.3778   -406619.86            0    11575.925    79317.052    1.2959391 
    9978        99.78    359.79454    -411282.9    4660.9946   -406621.91            0    11495.016    79317.479    1.2959321 
    9979        99.79    359.84213   -411285.83     4661.611   -406624.22            0    11381.863    79317.906    1.2959251 
    9980         99.8    359.88991    -411288.7    4662.2299   -406626.47            0    11298.206    79318.332    1.2959181 
    9981        99.81    359.93695   -411291.82    4662.8393   -406628.98            0    11170.327    79318.759    1.2959112 
    9982        99.82    359.98274   -411294.72    4663.4326   -406631.28            0    11066.264    79319.185    1.2959042 
    9983        99.83     360.0273   -411297.57    4664.0098   -406633.56            0    10961.609    79319.612    1.2958972 
    9984        99.84    360.07027   -411300.33    4664.5665   -406635.77            0    10877.528    79320.038    1.2958903 
    9985        99.85    360.11147   -411303.05    4665.1002   -406637.95            0    10842.244    79320.464    1.2958833 
    9986        99.86    360.15073   -411305.83    4665.6088   -406640.22            0    10773.757    79320.891    1.2958763 
    9987        99.87    360.18765   -411308.64     4666.087   -406642.55            0    10709.528    79321.317    1.2958694 
    9988        99.88    360.22203   -411311.19    4666.5324   -406644.66            0    10666.959    79321.743    1.2958624 
    9989        99.89    360.25375   -411313.94    4666.9434      -406647            0     10602.12    79322.169    1.2958555 
    9990         99.9     360.2827   -411316.52    4667.3184    -406649.2            0    10612.947    79322.595    1.2958485 
    9991        99.91    360.30903   -411319.19    4667.6596   -406651.53            0    10527.217    79323.021    1.2958415 
    9992        99.92    360.33287   -411321.87    4667.9684    -406653.9            0    10492.951    79323.446    1.2958346 
    9993        99.93    360.35422   -411324.18     4668.245   -406655.94            0    10521.373    79323.872    1.2958276 
    9994        99.94    360.37341   -411326.65    4668.4935   -406658.16            0    10534.029    79324.297    1.2958207 
    9995        99.95    360.39038   -411328.98    4668.7134   -406660.27            0     10492.38    79324.723    1.2958137 
    9996        99.96    360.40412   -411331.43    4668.8914   -406662.54            0    10424.069    79325.148    1.2958068 
    9997        99.97    360.41511   -411333.88    4669.0338   -406664.84            0    10397.724    79325.574    1.2957998 
    9998        99.98    360.42427   -411336.16    4669.1524   -406667.01            0    10386.963    79325.999    1.2957929 
    9999        99.99    360.43179   -411338.49    4669.2499   -406669.24            0     10372.28    79326.424     1.295786 
   10000          100    360.43844   -411340.77    4669.3359   -406671.43            0    10359.372    79326.849     1.295779 
Loop time of 9721.56 on 1 procs for 10000 steps with 4347 atoms

Performance: 0.001 ns/day, 27004.340 hours/ns, 1.029 timesteps/s
99.7% CPU use with 1 MPI tasks x 1 OpenMP threads

MPI task timing breakdown:
Section |  min time  |  avg time  |  max time  |%varavg| %total
---------------------------------------------------------------
Pair    | 8377.9     | 8377.9     | 8377.9     |   0.0 | 86.18
Neigh   | 130.28     | 130.28     | 130.28     |   0.0 |  1.34
Comm    | 1.2566     | 1.2566     | 1.2566     |   0.0 |  0.01
Output  | 6.3756     | 6.3756     | 6.3756     |   0.0 |  0.07
Modify  | 1205.4     | 1205.4     | 1205.4     |   0.0 | 12.40
Other   |            | 0.3378     |            |       |  0.00

Nlocal:    4347 ave 4347 max 4347 min
Histogram: 1 0 0 0 0 0 0 0 0 0
Nghost:    13651 ave 13651 max 13651 min
Histogram: 1 0 0 0 0 0 0 0 0 0
Neighs:    1.12849e+06 ave 1.12849e+06 max 1.12849e+06 min
Histogram: 1 0 0 0 0 0 0 0 0 0

Total # of neighbors = 1128488
Ave neighs/atom = 259.602
Neighbor list builds = 1000
Dangerous builds not checked

Please see the log.cite file for references relevant to this simulation

Total wall time: 2:42:03
