LAMMPS (19 Sep 2019)
OMP_NUM_THREADS environment is not set. Defaulting to 1 thread. (../comm.cpp:93)
  using 1 OpenMP thread(s) per MPI task
Reading data file ...
  orthogonal box = (-6.37931 -4.19611 -10.7845) to (6.5753 4.22201 10.6816)
  1 by 1 by 1 MPI processor grid
  reading atoms ...
  161 atoms
  read_data CPU = 0.0218692 secs
Replicating atoms ...
  orthogonal box = (-6.37931 -4.19611 -10.7845) to (32.4845 21.0582 53.6137)
  1 by 1 by 1 MPI processor grid
  4347 atoms
  replicate CPU = 0.0011487 secs
Reading potential file ffield.reax.FC with DATE: 2013-06-28
WARNING: Changed valency_val to valency_boc for X (../reaxc_ffield.cpp:315)
Neighbor list info ...
  update every 10 steps, delay 0 steps, check no
  max neighbors/atom: 2000, page size: 100000
  master list distance cutoff = 12
  ghost atom cutoff = 12
  binsize = 6, bins = 7 5 11
  2 neighbor lists, perpetual/occasional/extra = 2 0 0
  (1) pair reax/c, perpetual
      attributes: half, newton off, ghost
      pair build: half/bin/newtoff/ghost
      stencil: half/ghost/bin/3d/newtoff
      bin: standard
  (2) fix qeq/reax, perpetual, copy from (1)
      attributes: half, newton off, ghost
      pair build: copy
      stencil: none
      bin: none
Setting up Verlet run ...
  Unit style    : real
  Current step  : 0
  Time step     : 0.01
Per MPI rank memory allocation (min/avg/max) = 526.7 | 526.7 | 526.7 Mbytes
Step Time Temp E_pair PotEng KinEng TotEng E_bond Press Volume Density 
       0            0            0    5373839.2    5373839.2            0    5373839.2            0    2727659.5    63205.652    1.6262797 
       1         0.01    24.805319    5373517.4    5373517.4    321.34299    5373838.8            0    2727896.6    63205.661    1.6262794 
       2         0.02    99.210083    5372552.4    5372552.4     1285.227    5373837.7            0    2728610.1    63205.689    1.6262787 
       3         0.03    223.18073    5370944.6    5370944.6    2891.2171    5373835.8            0    2729798.8    63205.735    1.6262775 
       4         0.04    396.66131    5368694.6    5368694.6    5138.5888    5373833.2            0    2731461.7    63205.799    1.6262759 
       5         0.05    619.57356    5365803.5    5365803.5     8026.328    5373829.8            0    2733597.9    63205.882    1.6262737 
       6         0.06    891.81687    5362272.5    5362272.5    11553.131    5373825.6            0    2736205.8    63205.983    1.6262711 
       7         0.07    1213.2683    5358103.3    5358103.3    15717.407    5373820.8            0    2739283.6    63206.103    1.6262681 
       8         0.08    1583.7828    5353297.8    5353297.8    20517.274    5373815.1            0    2742829.3    63206.241    1.6262645 
       9         0.09     2003.193    5347858.1    5347858.1    25950.565    5373808.7            0    2746840.3    63206.398    1.6262605 
      10          0.1    2471.3095    5341786.1    5341786.1    32014.827    5373800.9            0      2751307    63206.573     1.626256 
      11         0.11    2987.9206    5335085.6    5335085.6    38707.317    5373792.9            0    2756240.4    63206.767     1.626251 
      12         0.12    3552.7929    5327758.6    5327758.6    46025.012    5373783.6            0    2761622.2    63206.979    1.6262455 
      13         0.13    4165.6709    5319808.8    5319808.8    53964.602    5373773.5            0    2767453.2     63207.21    1.6262396 
      14         0.14    4826.2775    5311240.6    5311240.6    62522.497    5373763.1            0    2773743.9     63207.46    1.6262331 
      15         0.15    5534.3138      5302057      5302057    71694.824    5373751.8            0    2780478.1    63207.728    1.6262262 
      16         0.16    6289.4594    5292262.4    5292262.4    81477.434    5373739.8            0    2787652.8    63208.015    1.6262189 
      17         0.17    7091.3725      5281861      5281861    91865.898    5373726.9            0    2795262.3    63208.321     1.626211 
      18         0.18    7939.6901    5270857.1    5270857.1    102855.51    5373712.6            0    2803295.2    63208.646    1.6262026 
      19         0.19     8834.028    5259256.6    5259256.6     114441.3    5373697.9            0    2811758.9    63208.989    1.6261938 
      20          0.2    9773.9813    5247064.2    5247064.2    126618.02    5373682.2            0    2820640.7    63209.352    1.6261845 
      21         0.21    10759.124      5234285      5234285    139380.16    5373665.2            0    2829930.1    63209.733    1.6261746 
      22         0.22    11789.011    5220925.3    5220925.3    152721.93    5373647.3            0    2839624.2    63210.134    1.6261643 
      23         0.23    12863.175    5206991.2    5206991.2     166637.3    5373628.5            0    2849722.6    63210.554    1.6261535 
      24         0.24    13981.131    5192488.3    5192488.3    181119.96    5373608.3            0    2860209.2    63210.993    1.6261422 
      25         0.25    15142.372    5177423.9    5177423.9    196163.37    5373587.3            0    2871087.1    63211.451    1.6261304 
      26         0.26    16346.373    5161804.3    5161804.3    211760.73      5373565            0      2882342    63211.929    1.6261182 
      27         0.27     17592.59    5145636.4    5145636.4    227904.98    5373541.4            0    2893967.1    63212.426    1.6261054 
      28         0.28    18880.461    5128927.6    5128927.6    244588.83    5373516.4            0    2905954.1    63212.943    1.6260921 
      29         0.29    20209.405    5111685.4    5111685.4    261804.76    5373490.1            0    2918292.5    63213.479    1.6260783 
      30          0.3    21578.821    5093916.9    5093916.9       279545    5373461.9            0    2930958.1    63214.035     1.626064 
      31         0.31    22988.094    5075630.9    5075630.9    297801.57    5373432.5            0    2943987.3    63214.611    1.6260492 
      32         0.32     24436.59    5056834.6    5056834.6    316566.26    5373400.9            0    2957339.6    63215.207    1.6260338 
      33         0.33    25923.659    5037537.3    5037537.3    335830.65    5373367.9            0      2971019    63215.822     1.626018 
      34         0.34    27448.636    5017746.9    5017746.9    355586.11      5373333            0      2985010    63216.458    1.6260017 
      35         0.35    29010.838    4997472.1    4997472.1    375823.81    5373295.9            0    2999300.9    63217.114    1.6259848 
      36         0.36    30609.567    4976721.2    4976721.2    396534.71    5373255.9            0    3013873.8     63217.79    1.6259674 
      37         0.37    32244.114    4955504.7    4955504.7    417709.61    5373214.3            0    3028743.5    63218.486    1.6259495 
      38         0.38    33913.751      4933834      4933834    439339.09      5373173            0    3043883.8    63219.203    1.6259311 
      39         0.39     35617.74    4911712.7    4911712.7    461413.59    5373126.3            0      3059291     63219.94    1.6259121 
      40          0.4    37355.328    4889156.1    4889156.1    483923.35    5373079.4            0    3074933.9    63220.698    1.6258926 
      41         0.41    39125.751    4866167.8    4866167.8    506858.47    5373026.3            0    3090804.1    63221.477    1.6258726 
      42         0.42    40928.232    4842761.4    4842761.4     530208.9    5372970.3            0      3106944    63222.276     1.625852 
      43         0.43    42761.986    4818946.3    4818946.3    553964.45    5372910.8            0    3123307.1    63223.097    1.6258309 
      44         0.44    44626.216    4794732.6    4794732.6     578114.8    5372847.4            0    3139881.6    63223.939    1.6258093 
      45         0.45    46520.113    4770130.7    4770130.7    602649.48    5372780.2            0    3156666.6    63224.801    1.6257871 
      46         0.46    48442.863    4745150.7    4745150.7    627557.93    5372708.6            0    3173628.8    63225.686    1.6257644 
      47         0.47    50393.638    4719802.4    4719802.4    652829.45    5372631.8            0    3190741.6    63226.591    1.6257411 
      48         0.48    52371.607    4694098.3    4694098.3    678453.25    5372551.5            0    3208067.1    63227.518    1.6257172 
      49         0.49    54375.931    4668046.8    4668046.8    704418.47    5372465.2            0    3225545.4    63228.467    1.6256928 
      50          0.5    56405.765      4641659      4641659    730714.15    5372373.1            0    3243165.2    63229.438    1.6256679 
      51         0.51    58460.257    4614946.7    4614946.7    757329.27      5372276            0      3260934     63230.43    1.6256424 
      52         0.52     60538.55    4587919.7    4587919.7    784252.73    5372172.5            0    3278830.7    63231.444    1.6256163 
      53         0.53    62639.783    4560589.7    4560589.7    811473.36    5372063.1            0    3296838.8    63232.481    1.6255896 
      54         0.54    64763.091    4532966.7    4532966.7    838979.98    5371946.7            0    3314971.2     63233.54    1.6255624 
      55         0.55    66907.609    4505061.7    4505061.7    866761.35    5371823.1            0    3333202.2    63234.621    1.6255346 
      56         0.56    69072.467    4476885.8    4476885.8    894806.21      5371692            0    3351517.4    63235.725    1.6255062 
      57         0.57    71256.793    4448449.4    4448449.4    923103.29    5371552.7            0    3369912.6    63236.851    1.6254773 
      58         0.58    73459.717    4419764.1    4419764.1    951641.28    5371405.4            0    3388378.5        63238    1.6254478 
      59         0.59    75680.365    4390840.3    4390840.3    980408.89    5371249.2            0    3406902.1    63239.172    1.6254176 
      60          0.6    77917.867      4361688      4361688    1009394.8    5371082.9            0    3425462.2    63240.367    1.6253869 
      61         0.61    80171.351    4332319.9    4332319.9    1038587.8    5370907.7            0    3444072.8    63241.585    1.6253556 
      62         0.62    82439.949    4302745.1    4302745.1    1067976.6    5370721.7            0    3462704.6    63242.827    1.6253237 
      63         0.63    84722.796    4272975.3    4272975.3      1097550    5370525.3            0    3481357.6    63244.092    1.6252912 
      64         0.64    87019.027    4243020.3    4243020.3    1127296.7      5370317            0    3500012.7     63245.38    1.6252581 
      65         0.65    89327.783    4212890.5    4212890.5    1157205.7    5370096.2            0    3518657.3    63246.692    1.6252244 
      66         0.66    91648.208    4182596.9    4182596.9    1187265.9    5369862.8            0    3537280.9    63248.028    1.6251901 
      67         0.67    93979.452    4152151.6    4152151.6    1217466.3    5369617.8            0    3555911.5    63249.387    1.6251551 
      68         0.68     96320.67    4121562.9    4121562.9    1247795.8    5369358.7            0    3574501.3    63250.771    1.6251196 
      69         0.69    98671.023    4090842.5    4090842.5    1278243.7    5369086.2            0      3593063    63252.179    1.6250834 
      70          0.7    101029.68    4059999.4    4059999.4    1308799.1    5368798.5            0    3611574.3    63253.611    1.6250466 
      71         0.71    103395.81      4029044      4029044    1339451.4    5368495.5            0    3630028.4    63255.067    1.6250092 
      72         0.72     105768.6    3997986.2    3997986.2      1370190    5368176.2            0    3648416.3    63256.548    1.6249711 
      73         0.73    108147.24    3966835.5    3966835.5    1401004.3    5367839.8            0    3666719.4    63258.054    1.6249325 
      74         0.74    110530.93      3935603      3935603    1431884.1      5367487            0    3684957.8    63259.584    1.6248932 
      75         0.75    112918.87    3904297.2    3904297.2    1462818.9    5367116.1            0    3703071.5     63261.14    1.6248532 
      76         0.76    115310.29    3872928.2    3872928.2    1493798.7      5366727            0      3721126     63262.72    1.6248126 
      77         0.77    117704.41    3841505.2    3841505.2    1524813.5    5366318.7            0    3739076.6    63264.326    1.6247714 
      78         0.78    120100.46      3810037      3810037    1555853.5    5365890.5            0    3756915.1    63265.956    1.6247295 
      79         0.79     122497.7    3778531.7    3778531.7    1586908.8    5365440.5            0    3774608.6    63267.613     1.624687 
      80          0.8    124895.39    3747000.8    3747000.8    1617969.9    5364970.7            0    3792188.4    63269.294    1.6246438 
      81         0.81     127292.8    3715451.7    3715451.7    1649027.4    5364479.1            0      3809645    63271.001    1.6245999 
      82         0.82    129689.21    3683892.6    3683892.6    1680071.9    5363964.6            0    3826949.3    63272.734    1.6245555 
      83         0.83    132083.92    3652332.9    3652332.9    1711094.4    5363427.4            0      3844129    63274.493    1.6245103 
      84         0.84    134476.24    3620780.4    3620780.4      1742086    5362866.3            0    3861157.2    63276.278    1.6244645 
      85         0.85    136865.49      3589243      3589243    1773037.8    5362280.8            0    3878020.9    63278.089     1.624418 
      86         0.86    139251.01    3557729.4    3557729.4    1803941.2    5361670.6            0    3894732.8    63279.926    1.6243708 
      87         0.87    141632.15    3526246.7    3526246.7    1834787.9    5361034.7            0    3911276.2     63281.79     1.624323 
      88         0.88    144008.27    3494802.9    3494802.9    1865569.6    5360372.5            0    3927648.1     63283.68    1.6242745 
      89         0.89    146378.76    3463405.3    3463405.3    1896278.3    5359683.6            0    3943848.5    63285.596    1.6242253 
      90          0.9       148743    3432061.3    3432061.3    1926906.1    5358967.4            0    3959859.8    63287.539    1.6241754 
      91         0.91    151100.41    3400776.6    3400776.6    1957445.4      5358222            0    3975659.2    63289.509    1.6241249 
      92         0.92    153450.41    3369560.9    3369560.9    1987888.7    5357449.6            0    3991291.4    63291.506    1.6240736 
      93         0.93    155792.43    3338419.5    3338419.5    2018228.8    5356648.3            0    4006721.2     63293.53    1.6240217 
      94         0.94    158125.95    3307359.1    3307359.1    2048458.5    5355817.7            0    4021957.3    63295.581    1.6239691 
      95         0.95    160450.43      3276386      3276386    2078571.2    5354957.3            0    4036989.9    63297.658    1.6239158 
      96         0.96    162765.36    3245505.7    3245505.7    2108560.2    5354065.9            0      4051799    63299.764    1.6238618 
      97         0.97    165070.25    3214725.3    3214725.3    2138419.1    5353144.4            0    4066412.5    63301.896    1.6238071 
      98         0.98    167364.62    3184050.9    3184050.9    2168141.7    5352192.6            0    4080818.2    63304.056    1.6237516 
      99         0.99    169648.01    3153488.1    3153488.1    2197722.2    5351210.3            0    4095014.7    63306.244    1.6236955 
     100            1    171919.98    3123042.4    3123042.4    2227154.6      5350197            0    4108987.9     63308.46    1.6236387 
     101         1.01     174180.1      3092718      3092718    2256433.6    5349151.6            0    4122711.5    63310.703    1.6235812 
     102         1.02    176427.97    3062521.4    3062521.4    2285553.8    5348075.3            0    4136196.4    63312.974     1.623523 
     103         1.03    178663.19    3032457.2    3032457.2    2314510.2    5346967.5            0    4149406.8    63315.272     1.623464 
     104         1.04    180885.39    3002530.2    3002530.2    2343297.9    5345828.1            0    4162443.8    63317.599    1.6234043 
     105         1.05    183094.22    2972745.9    2972745.9    2371912.4    5344658.3            0    4175257.9    63319.954     1.623344 
     106         1.06    185289.34    2943108.1    2943108.1    2400349.3    5343457.4            0    4187856.8    63322.338    1.6232829 
     107         1.07    187470.43    2913620.5    2913620.5    2428604.6    5342225.1            0    4200264.4    63324.749     1.623221 
     108         1.08    189637.21    2884288.1    2884288.1    2456674.3    5340962.4            0    4212430.4    63327.189    1.6231585 
     109         1.09    191789.37    2855113.9    2855113.9    2484554.7    5339668.6            0    4224356.9    63329.657    1.6230952 
     110          1.1    193926.66    2826103.2    2826103.2    2512242.4    5338345.6            0    4236067.8    63332.154    1.6230313 
     111         1.11    196048.82    2797258.1    2797258.1    2539734.2    5336992.3            0    4247527.6     63334.68    1.6229665 
     112         1.12    198155.63    2768583.1    2768583.1      2567027      5335610            0    4258773.7    63337.234    1.6229011 
     113         1.13    200246.85      2740081      2740081    2594117.9    5334198.9            0    4269785.9    63339.817    1.6228349 
     114         1.14     202322.3    2711754.6    2711754.6    2621004.5    5332759.2            0    4280557.1    63342.428     1.622768 
     115         1.15    204381.78    2683608.6    2683608.6    2647684.3    5331292.9            0      4291111    63345.069    1.6227004 
     116         1.16    206425.13    2655644.8    2655644.8    2674155.1    5329799.9            0    4301450.2    63347.738     1.622632 
     117         1.17    208452.19    2627865.6    2627865.6    2700414.8    5328280.3            0    4311546.2    63350.437    1.6225629 
     118         1.18    210462.81    2600274.5    2600274.5    2726461.7    5326736.1            0    4321425.2    63353.164     1.622493 
     119         1.19    212456.88    2572873.4    2572873.4      2752294    5325167.4            0    4331073.6    63355.921    1.6224224 
     120          1.2    214434.27    2545664.4    2545664.4    2777910.3    5323574.7            0    4340512.4    63358.707    1.6223511 
     121         1.21    216394.88    2518650.1    2518650.1    2803309.2    5321959.3            0    4349719.1    63361.522     1.622279 
     122         1.22    218338.61    2491831.9    2491831.9    2828489.5    5320321.4            0    4358716.8    63364.367    1.6222062 
     123         1.23     220265.4    2465211.5    2465211.5    2853450.2    5318661.8            0    4367480.4    63367.241    1.6221326 
     124         1.24    222175.16    2438792.1    2438792.1    2878190.4    5316982.6            0    4376010.8    63370.144    1.6220583 
     125         1.25    224067.83    2412574.8    2412574.8    2902709.2      5315284            0    4384349.9    63373.077    1.6219832 
     126         1.26    225943.36    2386559.6    2386559.6      2927006    5313565.6            0    4392449.4    63376.039    1.6219074 
     127         1.27    227801.71    2360748.2    2360748.2    2951080.1    5311828.3            0    4400387.2    63379.031    1.6218308 
     128         1.28    229642.83    2335144.3    2335144.3    2974931.1    5310075.4            0    4408088.6    63382.053    1.6217535 
     129         1.29    231466.69    2309746.7    2309746.7    2998558.5    5308305.2            0    4415568.8    63385.104    1.6216754 
     130          1.3    233273.27    2284556.8    2284556.8      3021962    5306518.7            0    4422877.6    63388.185    1.6215966 
     131         1.31    235062.54    2259577.2    2259577.2    3045141.3    5304718.5            0    4429969.4    63391.295     1.621517 
     132         1.32    236834.49    2234807.5    2234807.5    3068096.2    5302903.7            0    4436863.4    63394.436    1.6214367 
     133         1.33    238589.11      2210248      2210248    3090826.6    5301074.6            0    4443537.5    63397.606    1.6213556 
     134         1.34    240326.38    2185899.6    2185899.6    3113332.3    5299231.9            0    4450026.4    63400.806    1.6212738 
     135         1.35    242046.31    2161762.5    2161762.5    3135613.3    5297375.8            0    4456297.9    63404.036    1.6211912 
     136         1.36    243748.89    2137837.4    2137837.4    3157669.5    5295506.9            0    4462408.4    63407.296    1.6211079 
     137         1.37    245434.12    2114124.8    2114124.8      3179501    5293625.8            0    4468331.3    63410.586    1.6210238 
     138         1.38       247102    2090624.7    2090624.7    3201107.7    5291732.4            0    4474072.3    63413.906    1.6209389 
     139         1.39    248752.54    2067337.8    2067337.8    3222489.8    5289827.6            0    4479678.1    63417.256    1.6208533 
     140          1.4    250385.74    2044263.6    2044263.6    3243647.2    5287910.8            0      4485077    63420.635    1.6207669 
     141         1.41     252001.6    2021402.3    2021402.3    3264580.1    5285982.4            0    4490296.9    63424.045    1.6206797 
     142         1.42    253600.14    1998754.4    1998754.4    3285288.5    5284042.9            0    4495398.1    63427.485    1.6205918 
     143         1.43    255181.36    1976318.6    1976318.6    3305772.6    5282091.2            0    4500250.6    63430.956    1.6205032 
     144         1.44    256745.27    1954095.5    1954095.5    3326032.3    5280127.8            0    4504936.5    63434.456    1.6204138 
     145         1.45    258291.86      1932084      1932084    3346067.9    5278151.9            0    4509465.6    63437.986    1.6203236 
     146         1.46    259821.17    1910283.6    1910283.6    3365879.4    5276163.1            0    4513807.6    63441.547    1.6202327 
     147         1.47    261333.19    1888695.3    1888695.3    3385467.1    5274162.4            0    4517995.7    63445.138     1.620141 
     148         1.48    262827.94    1867316.9    1867316.9      3404831    5272147.9            0    4522036.2    63448.759    1.6200485 
     149         1.49    264305.44    1846148.1    1846148.1    3423971.4    5270119.6            0    4525903.5     63452.41    1.6199553 
     150          1.5    265765.71    1825189.5    1825189.5    3442888.5    5268078.1            0    4529633.7    63456.091    1.6198613 
     151         1.51    267208.75    1804440.3    1804440.3    3461582.5    5266022.9            0    4533194.7    63459.803    1.6197665 
     152         1.52    268634.58    1783898.2    1783898.2    3480053.6    5263951.8            0    4536598.3    63463.545     1.619671 
     153         1.53    270043.22    1763563.9    1763563.9    3498302.1      5261866            0    4539856.4    63467.317    1.6195748 
     154         1.54    271434.71    1743436.6    1743436.6    3516328.2    5259764.7            0    4542971.3    63471.119    1.6194778 
     155         1.55    272809.05    1723514.6    1723514.6    3534132.2    5257646.9            0    4545949.4    63474.951      1.61938 
     156         1.56    274166.28    1703795.8    1703795.8    3551714.6    5255510.4            0    4548782.6    63478.814    1.6192814 
     157         1.57    275506.42    1684282.2    1684282.2    3569075.6    5253357.7            0    4551470.6    63482.707    1.6191821 
     158         1.58     276829.5    1664971.2    1664971.2    3586215.6    5251186.9            0    4554021.3     63486.63    1.6190821 
     159         1.59    278135.57    1645861.7    1645861.7    3603135.1    5248996.8            0    4556430.9    63490.584    1.6189813 
     160          1.6    279424.64    1626952.6    1626952.6    3619834.6    5246787.3            0    4558710.5    63494.567    1.6188797 
     161         1.61    280696.77    1608243.4    1608243.4    3636314.5    5244557.9            0      4560876    63498.581    1.6187774 
     162         1.62       281952    1589731.5    1589731.5    3652575.5      5242307            0    4562891.6    63502.625    1.6186743 
     163         1.63    283190.36      1571417      1571417      3668618      5240035            0    4564780.3    63506.699    1.6185704 
     164         1.64    284411.92    1553297.9    1553297.9    3684442.8    5237740.7            0    4566541.5    63510.804    1.6184658 
     165         1.65    285616.71    1535372.2    1535372.2    3700050.4    5235422.6            0      4568193    63514.938    1.6183605 
     166         1.66     286804.8    1517640.5    1517640.5    3715441.6    5233082.1            0    4569710.7    63519.103    1.6182544 
     167         1.67    287976.25      1500100      1500100    3730617.2    5230717.3            0    4571119.3    63523.298    1.6181475 
     168         1.68    289131.11    1482751.2    1482751.2      3745578    5228329.3            0    4572405.4    63527.523    1.6180399 
     169         1.69    290269.45    1465590.9    1465590.9    3760324.8    5225915.7            0      4573567    63531.778    1.6179315 
     170          1.7    291391.35    1448617.5    1448617.5    3774858.5      5223476            0    4574604.9    63536.063    1.6178224 
     171         1.71    292496.87    1431831.1    1431831.1    3789180.1    5221011.2            0    4575551.9    63540.378    1.6177125 
     172         1.72     293586.1    1415229.8    1415229.8    3803290.6    5218520.4            0    4576380.1    63544.723    1.6176019 
     173         1.73    294659.11    1398811.7    1398811.7      3817191    5216002.7            0    4577096.1    63549.099    1.6174905 
     174         1.74    295715.99      1382575      1382575    3830882.5    5213457.5            0    4577715.6    63553.504    1.6173784 
     175         1.75    296756.83    1366518.5    1366518.5    3844366.1    5210884.7            0      4578203    63557.939    1.6172656 
     176         1.76    297781.72    1350640.6    1350640.6    3857643.2    5208283.7            0    4578597.6    63562.404     1.617152 
     177         1.77    298790.75    1334940.1    1334940.1    3870714.8    5205654.9            0    4578877.2    63566.899    1.6170376 
     178         1.78    299784.03    1319415.5    1319415.5    3883582.3    5202997.8            0    4579058.2    63571.424    1.6169225 
     179         1.79    300761.66    1304065.2    1304065.2    3896247.1    5200312.3            0    4579139.6    63575.978    1.6168067 
     180          1.8    301723.74    1288887.2    1288887.2    3908710.5    5197597.7            0    4579114.8    63580.563    1.6166901 
     181         1.81    302670.39    1273880.6    1273880.6      3920974    5194854.5            0    4578996.6    63585.177    1.6165728 
     182         1.82    303601.72    1259043.3    1259043.3      3933039    5192082.3            0      4578785    63589.821    1.6164547 
     183         1.83    304517.85    1244373.4    1244373.4    3944907.1    5189280.5            0    4578458.9    63594.494    1.6163359 
     184         1.84     305418.9      1229869      1229869    3956579.8    5186448.9            0    4578031.5    63599.197    1.6162164 
     185         1.85    306304.99    1215529.6    1215529.6    3968058.8    5183588.4            0    4577506.5     63603.93    1.6160961 
     186         1.86    307176.25    1201353.1    1201353.1    3979345.6    5180698.8            0      4576891    63608.692    1.6159751 
     187         1.87    308032.82    1187338.7    1187338.7    3990442.1    5177780.7            0    4576188.3    63613.484    1.6158534 
     188         1.88    308874.81    1173484.1    1173484.1    4001349.7    5174833.9            0    4575385.6    63618.305     1.615731 
     189         1.89    309702.37    1159787.5    1159787.5    4012070.5      5171858            0    4574524.8    63623.155    1.6156078 
     190          1.9    310515.64    1146261.5    1146261.5    4022606.1    5168867.5            0    4573513.7    63628.035    1.6154839 
     191         1.91    311314.76    1132876.5    1132876.5    4032958.3    5165834.8            0    4572447.3    63632.944    1.6153593 
     192         1.92    312099.86      1119644      1119644      4043129      5162773            0    4571297.2    63637.883    1.6152339 
     193         1.93     312871.1    1106563.4    1106563.4    4053120.1    5159683.4            0    4570058.5     63642.85    1.6151078 
     194         1.94    313628.61    1093632.5    1093632.5    4062933.4    5156565.9            0    4568719.1    63647.847     1.614981 
     195         1.95    314372.56    1080864.4    1080864.4    4072570.9    5153435.3            0    4567304.1    63652.873    1.6148535 
     196         1.96    315103.08    1068228.5    1068228.5    4082034.5    5150263.1            0    4565800.3    63657.927    1.6147253 
     197         1.97    315820.33    1055738.3    1055738.3    4091326.2    5147064.5            0    4564225.6    63663.011    1.6145964 
     198         1.98    316524.46    1043391.8    1043391.8      4100448    5143839.7            0    4562569.7    63668.124    1.6144667 
     199         1.99    317215.63    1031186.6    1031186.6    4109401.7    5140588.3            0    4560810.4    63673.265    1.6143363 
     200            2    317893.98    1019121.9    1019121.9    4118189.5    5137311.4            0    4559003.3    63678.435    1.6142053 
     201         2.01    318559.67      1007195      1007195    4126813.3    5134008.3            0      4557160    63683.634    1.6140735 
     202         2.02    319212.87    995406.22    995406.22    4135275.2    5130681.4            0    4555212.9    63688.861     1.613941 
     203         2.03    319853.71    983752.46    983752.46    4143577.1    5127329.5            0    4553166.3    63694.117    1.6138078 
     204         2.04    320482.36    972233.66    972233.66    4151720.9    5123954.6            0    4551018.4    63699.401     1.613674 
     205         2.05    321098.96     960857.4     960857.4    4159708.8    5120566.2            0    4548781.9    63704.714    1.6135394 
     206         2.06    321703.68    949600.59    949600.59    4167542.6    5117143.2            0    4546497.6    63710.055    1.6134041 
     207         2.07    322296.65    938473.48    938473.48    4175224.4    5113697.9            0      4544132    63715.424    1.6132682 
     208         2.08    322878.05    927473.82    927473.82    4182756.1    5110229.9            0    4541725.3    63720.821    1.6131315 
     209         2.09    323448.01    916600.37    916600.37    4190139.8    5106740.1            0    4539250.6    63726.247    1.6129942 
     210          2.1    324006.69    905851.32    905851.32    4197377.2    5103228.6            0    4536695.8      63731.7    1.6128562 
     211         2.11    324554.24    895225.34    895225.34    4204470.5    5099695.8            0    4534090.2    63737.181    1.6127175 
     212         2.12     325090.8    884720.75    884720.75    4211421.4    5096142.2            0    4531410.5    63742.691    1.6125781 
     213         2.13    325616.52    874335.77    874335.77    4218231.9    5092567.7            0    4528673.2    63748.227     1.612438 
     214         2.14    326131.55    864080.78    864080.78    4224903.9    5088984.7            0    4525863.1    63753.792    1.6122973 
     215         2.15    326636.02    853932.42    853932.42    4231439.2    5085371.6            0    4523015.6    63759.384    1.6121559 
     216         2.16     327130.1    843899.91    843899.91    4237839.7    5081739.6            0    4520107.3    63765.003    1.6120138 
     217         2.17     327613.9    833981.23    833981.23    4244107.2    5078088.4            0    4517150.9     63770.65    1.6118711 
     218         2.18    328087.57    824175.97    824175.97    4250243.5    5074419.4            0    4514150.6    63776.324    1.6117277 
     219         2.19    328551.26    814481.32    814481.32    4256250.3    5070731.7            0    4511080.3    63782.025    1.6115836 
     220          2.2     329005.1    804897.12    804897.12    4262129.6    5067026.7            0    4507992.4    63787.754    1.6114389 
     221         2.21    329449.21    795420.99    795420.99    4267882.9    5063303.9            0      4504829    63793.509    1.6112935 
     222         2.22    329883.73    786051.62    786051.62      4273512    5059563.6            0    4501615.2    63799.291    1.6111475 
     223         2.23    330308.79    776787.38    776787.38    4279018.5    5055805.8            0    4498349.9      63805.1    1.6110008 
     224         2.24    330724.52    767642.13    767642.13      4284404    5052046.1            0    4495016.4    63810.936    1.6108534 
     225         2.25    331131.03    758585.92    758585.92    4289670.2    5048256.1            0    4491669.7    63816.798    1.6107055 
     226         2.26    331528.46    749631.58    749631.58    4294818.7    5044450.3            0    4488322.6    63822.687    1.6105569 
     227         2.27    331916.92    740793.73    740793.73    4299851.1    5040644.8            0    4484867.5    63828.602    1.6104076 
     228         2.28    332296.54    732038.89    732038.89    4304768.9    5036807.8            0    4481467.6    63834.543    1.6102577 
     229         2.29    332667.44    723382.14    723382.14    4309573.8    5032955.9            0    4478154.4    63840.511    1.6101072 
     230          2.3    333029.77    714820.34    714820.34    4314267.6    5029087.9            0    4475006.9    63846.504    1.6099561 
     231         2.31    333383.68    706352.89    706352.89    4318852.4    5025205.3            0    4472465.7    63852.523    1.6098043 
     232         2.32    333729.47    697976.86    697976.86    4323331.9    5021308.8            0    4471865.9    63858.568    1.6096519 
     233         2.33    334067.74    689682.88    689682.88    4327714.2      5017397            0      4477367    63864.639    1.6094989 
     234         2.34    334400.11    681451.15    681451.15    4332019.8      5013471            0    4499668.7    63870.736    1.6093453 
     235         2.35    334729.74    673238.84    673238.84    4336290.1    5009528.9            0    4549530.5    63876.858     1.609191 
     236         2.36    335059.82    664994.29    664994.29    4340566.1    5005560.4            0    4604744.8    63883.006    1.6090361 
     237         2.37    335389.45    656727.02    656727.02    4344836.3    5001563.3            0    4618291.3    63889.181    1.6088806 
     238         2.38    335709.31    648570.63    648570.63      4348980    4997550.6            0    4538125.5    63895.381    1.6087245 
     239         2.39    336011.37    640663.86    640663.86    4352893.1    4993556.9            0    4452002.1    63901.607    1.6085678 
     240          2.4    336301.98     632901.7     632901.7    4356657.7    4989559.4            0    4480216.6    63907.859    1.6084104 
     241         2.41    336588.26     625153.3     625153.3    4360366.5    4985519.8            0    4520707.1    63914.135    1.6082525 
     242         2.42    336867.15    617479.61    617479.61    4363979.4      4981459            0    4486231.8    63920.436    1.6080939 
     243         2.43    337134.62    609948.46    609948.46    4367444.3    4977392.8            0      4451917    63926.762    1.6079348 
     244         2.44    337392.14    602540.99    602540.99    4370780.4    4973321.4            0    4438887.6    63933.113    1.6077751 
     245         2.45     337642.7    595219.27    595219.27    4374026.3    4969245.6            0    4448762.9    63939.487    1.6076148 
     246         2.46    337889.23     587934.4     587934.4    4377219.9    4965154.3            0    4475392.7    63945.887    1.6074539 
     247         2.47     338134.3    580649.04    580649.04    4380394.8    4961043.8            0    4509729.6     63952.31    1.6072925 
     248         2.48    338377.14    573367.77    573367.77    4383540.6    4956908.4            0    4507356.7    63958.758    1.6071304 
     249         2.49    338611.39    566192.99    566192.99    4386575.2    4952768.2            0    4461245.8     63965.23    1.6069678 
     250          2.5    338833.05    559180.53    559180.53    4389446.8    4948627.3            0    4427661.6    63971.726    1.6068046 
     251         2.51    339044.63    552287.62    552287.62    4392187.8    4944475.4            0      4419228    63978.246    1.6066409 
     252         2.52    339249.46     545468.9     545468.9    4394841.3    4940310.2            0    4420607.7    63984.789    1.6064766 
     253         2.53    339448.43    538710.99    538710.99    4397418.8    4936129.8            0      4414408    63991.355    1.6063118 
     254         2.54    339640.65    532026.07    532026.07    4399908.9      4931935            0      4399612    63997.944    1.6061464 
     255         2.55    339825.16    525434.69    525434.69    4402299.1    4927733.8            0    4381953.8    64004.556    1.6059804 
     256         2.56    340001.77    518934.08    518934.08      4404587    4923521.1            0      4367528    64011.191     1.605814 
     257         2.57    340171.01    512517.39    512517.39    4406779.6      4919297            0    4357296.6    64017.848     1.605647 
     258         2.58     340333.6    506178.92    506178.92    4408885.8    4915064.7            0    4350982.6    64024.528    1.6054795 
     259         2.59    340490.01    499908.81    499908.81      4410912    4910820.8            0    4345923.5    64031.229    1.6053115 
     260          2.6    340640.45    493704.39    493704.39    4412860.9    4906565.3            0      4341764    64037.953    1.6051429 
     261         2.61    340785.36    487560.61    487560.61    4414738.2    4902298.8            0    4341947.8    64044.698    1.6049739 
     262         2.62    340925.36    481469.27    481469.27    4416551.8    4898021.1            0    4345557.5    64051.465    1.6048043 
     263         2.63    341060.97    475420.55    475420.55    4418308.6    4893729.1            0    4351175.3    64058.253    1.6046342 
     264         2.64    341192.44    469414.86    469414.86    4420011.7    4889426.6            0    4353977.3    64065.063    1.6044637 
     265         2.65    341319.74    463452.82    463452.82    4421660.9    4885113.7            0    4353405.4    64071.894    1.6042926 
     266         2.66    341443.65     457523.3     457523.3      4423266    4880789.3            0      4360481    64078.746    1.6041211 
     267         2.67    341566.05    451598.58    451598.58    4424851.7    4876450.3            0    4375678.2     64085.62     1.603949 
     268         2.68    341688.31    445657.91    445657.91    4426435.6    4872093.5            0    4385450.3    64092.514    1.6037765 
     269         2.69    341808.38    439728.61    439728.61      4427991    4867719.6            0    4369409.2    64099.429    1.6036034 
     270          2.7       341921    433896.63    433896.63      4429450    4863346.6            0    4336404.1    64106.366    1.6034299 
     271         2.71    342024.47    428185.62    428185.62    4430790.4      4858976            0    4322114.9    64113.322     1.603256 
     272         2.72    342122.57    422530.97    422530.97    4432061.2    4854592.2            0    4328527.6    64120.299    1.6030815 
     273         2.73    342217.58    416899.03    416899.03      4433292    4850191.1            0    4326011.4    64127.296    1.6029066 
     274         2.74    342306.04    411340.73    411340.73      4434438    4845778.7            0    4295329.1    64134.313    1.6027312 
     275         2.75    342383.68     405923.1     405923.1    4435443.8    4841366.9            0    4258941.8    64141.349    1.6025554 
     276         2.76    342450.85    400635.52    400635.52    4436313.9    4836949.4            0      4235417    64148.404    1.6023792 
     277         2.77    342510.31    395438.74    395438.74    4437084.3      4832523            0    4225834.3    64155.478    1.6022025 
     278         2.78    342564.48     390303.9     390303.9      4437786    4828089.9            0    4231339.8    64162.571    1.6020253 
     279         2.79    342614.85    385204.85    385204.85    4438438.5    4823643.4            0    4245286.8    64169.683    1.6018478 
     280          2.8    342662.23    380131.22    380131.22    4439052.2    4819183.5            0    4251758.3    64176.813    1.6016698 
     281         2.81       342706    375090.06    375090.06    4439619.3    4814709.4            0    4237238.4    64183.961    1.6014915 
     282         2.82    342744.67    370113.03    370113.03    4440120.3    4810233.3            0    4216962.8    64191.128    1.6013127 
     283         2.83    342777.52     365204.6     365204.6    4440545.8    4805750.4            0    4198935.1    64198.312    1.6011335 
     284         2.84    342804.51    360362.92    360362.92    4440895.5    4801258.4            0    4182875.1    64205.514    1.6009539 
     285         2.85    342825.99    355590.64    355590.64    4441173.8    4796764.4            0    4170381.9    64212.733    1.6007739 
     286         2.86     342842.8    350874.27    350874.27    4441391.5    4792265.8            0    4164105.7    64219.969    1.6005935 
     287         2.87    342855.95    346196.97    346196.97    4441561.9    4787758.9            0    4165137.7    64227.222    1.6004128 
     288         2.88    342866.19    341545.94    341545.94    4441694.5    4783240.5            0    4167649.4    64234.492    1.6002316 
     289         2.89    342874.24    336916.16    336916.16    4441798.8    4778714.9            0    4175216.4    64241.779    1.6000501 
     290          2.9    342881.57    332287.47    332287.47    4441893.8    4774181.3            0    4194897.5    64249.082    1.5998683 
     291         2.91    342891.16    327620.15    327620.15      4442018    4769638.1            0    4231119.7    64256.401     1.599686 
     292         2.92    342905.96    322864.08    322864.08    4442209.7    4765073.7            0    4265880.5    64263.737    1.5995034 
     293         2.93     342922.1    318071.15    318071.15    4442418.8      4760490            0      4257844     64271.09    1.5993204 
     294         2.94    342930.97    313376.36    313376.36    4442533.7      4755910            0    4224295.6    64278.459    1.5991371 
     295         2.95    342930.21    308804.45    308804.45    4442523.9    4751328.4            0    4203743.4    64285.844    1.5989534 
     296         2.96    342922.95    304314.11    304314.11    4442429.8    4746743.9            0    4196617.1    64293.245    1.5987693 
     297         2.97    342915.14    299834.79    299834.79    4442328.6    4742163.4            0    4237948.2    64300.661    1.5985849 
     298         2.98    342913.66    295219.37    295219.37    4442309.5    4737528.9            0    4300444.5    64308.093    1.5984001 
     299         2.99    342910.12    290634.95    290634.95    4442263.6    4732898.5            0    4233458.3    64315.542     1.598215 
     300            3     342892.2    286262.65    286262.65    4442031.5    4728294.1            0    4173981.6    64323.005    1.5980296 
     301         3.01    342864.13    282017.38    282017.38    4441667.8    4723685.1            0    4160809.4    64330.483    1.5978438 
     302         3.02    342833.64    277794.55    277794.55    4441272.9    4719067.4            0    4186153.2    64337.976    1.5976578 
     303         3.03    342806.76    273498.36    273498.36    4440924.7      4714423            0    4228422.5    64345.483    1.5974714 
     304         3.04    342782.83    269148.99    269148.99    4440614.6    4709763.6            0    4233069.7    64353.004    1.5972846 
     305         3.05    342754.32    264863.41    264863.41    4440245.3    4705108.7            0    4211579.2     64360.54    1.5970976 
     306         3.06    342718.31     260669.1     260669.1    4439778.7    4700447.8            0    4206276.1    64368.091    1.5969103 
     307         3.07    342678.54    256520.23    256520.23    4439263.5    4695783.8            0    4213510.8    64375.655    1.5967226 
     308         3.08    342637.46    252382.56    252382.56    4438731.4    4691113.9            0    4216831.7    64383.233    1.5965347 
     309         3.09    342595.46    248240.49    248240.49    4438187.3    4686427.7            0    4226292.3    64390.825    1.5963465 
     310          3.1    342552.26    244103.03    244103.03    4437627.7    4681730.7            0    4224632.1     64398.43    1.5961579 
     311         3.11    342502.46    240047.45    240047.45    4436982.6      4677030            0    4170086.9    64406.049    1.5959691 
     312         3.12    342440.55    236163.34    236163.34    4436180.5    4672343.8            0    4116561.5    64413.681      1.59578 
     313         3.13    342369.25       232405       232405    4435256.8    4667661.8            0    4096850.7    64421.325    1.5955907 
     314         3.14    342293.95    228694.63    228694.63    4434281.4      4662976            0    4099672.2    64428.981    1.5954011 
     315         3.15    342216.81    224992.76    224992.76    4433282.1    4658274.8            0    4101188.5    64436.649    1.5952112 
     316         3.16    342136.34    221325.62    221325.62    4432239.5    4653565.2            0    4087152.9    64444.328    1.5950211 
     317         3.17    342050.47    217729.54    217729.54    4431127.2    4648856.7            0    4067588.2    64452.019    1.5948308 
     318         3.18    341959.49    214197.79    214197.79    4429948.5    4644146.3            0      4058567    64459.722    1.5946402 
     319         3.19    341867.52    210680.32    210680.32    4428757.2    4639437.5            0    4090175.1    64467.435    1.5944495 
     320          3.2    341777.98    207108.65    207108.65    4427597.2    4634705.9            0    4114073.4    64475.159    1.5942584 
     321         3.21    341688.52    203534.18    203534.18    4426438.3    4629972.5            0    4103187.6    64482.893    1.5940672 
     322         3.22    341594.99    200007.08    200007.08    4425226.7    4625233.7            0    4079203.9    64490.639    1.5938758 
     323         3.23    341495.08    196559.72    196559.72    4423932.4    4620492.1            0    4051400.5    64498.395    1.5936841 
     324         3.24    341388.57    193202.84    193202.84    4422552.5    4615755.4            0      4030397    64506.161    1.5934922 
     325         3.25    341276.57     189909.9     189909.9    4421101.6    4611011.5            0    4013894.9    64513.936    1.5933002 
     326         3.26    341160.13    186678.59    186678.59    4419593.1    4606271.7            0    3999996.6    64521.721    1.5931079 
     327         3.27    341040.35    183490.44    183490.44    4418041.5    4601531.9            0    3989266.9    64529.515    1.5929155 
     328         3.28    340920.55    180302.93    180302.93    4416489.5    4596792.4            0    4003907.4    64537.318    1.5927229 
     329         3.29    340807.38    177016.75    177016.75    4415023.5    4592040.2            0    4060117.9    64545.129    1.5925302 
     330          3.3    340703.59    173581.23    173581.23    4413678.8    4587260.1            0      4098644     64552.95    1.5923372 
     331         3.31    340602.65    170104.67    170104.67    4412371.3      4582476            0      4092341     64560.78    1.5921441 
     332         3.32    340497.12    166692.38    166692.38    4411004.2    4577696.6            0    4073824.4    64568.618    1.5919508 
     333         3.33    340384.75     163365.5     163365.5    4409548.4    4572913.9            0    4050085.9    64576.465    1.5917574 
     334         3.34    340266.67     160116.1     160116.1    4408018.7    4568134.8            0      4031839     64584.32    1.5915638 
     335         3.35    340147.73    156880.76    156880.76      4406478    4563358.8            0    4034615.3    64592.184      1.59137 
     336         3.36    340033.63    153558.14    153558.14    4404999.9      4558558            0    4053093.6    64600.055    1.5911761 
     337         3.37     339920.9    150207.77    150207.77    4403539.4    4553747.2            0    4038812.7    64607.933    1.5909821 
     338         3.38    339801.35    146953.12    146953.12    4401990.7    4548943.8            0    4016346.6     64615.82    1.5907879 
     339         3.39    339673.99    143800.71    143800.71    4400340.9    4544141.6            0      4009525    64623.713    1.5905936 
     340          3.4    339542.06    140711.05    140711.05    4398631.8    4539342.8            0    4021343.1    64631.613    1.5903992 
     341         3.41     339410.6     137614.8     137614.8    4396928.8    4534543.6            0    4058297.1     64639.52    1.5902047 
     342         3.42    339285.65    134412.37    134412.37      4395310    4529722.4            0    4113005.5    64647.434      1.59001 
     343         3.43    339167.29    131097.39    131097.39    4393776.8    4524874.2            0    4126679.1    64655.355    1.5898152 
     344         3.44    339047.14    127802.15    127802.15    4392220.3    4520022.4            0    4086069.2    64663.283    1.5896203 
     345         3.45    338916.04    124661.58    124661.58    4390521.9    4515183.4            0    4024689.2    64671.218    1.5894252 
     346         3.46     338771.9    121704.39    121704.39    4388654.6      4510359            0    3981494.5    64679.158    1.5892301 
     347         3.47    338619.17    118865.04    118865.04    4386676.1    4505541.1            0    3962725.2    64687.105    1.5890349 
     348         3.48    338463.45    116067.79    116067.79    4384658.8    4500726.6            0    3963775.1    64695.056    1.5888396 
     349         3.49     338309.2    113248.46    113248.46    4382660.5      4495909            0    3977399.6    64703.012    1.5886442 
     350          3.5    338161.13    110343.86    110343.86    4380742.4    4491086.2            0    4010770.1    64710.973    1.5884488 
     351         3.51    338024.58    107275.99    107275.99    4378973.4    4486249.4            0    4057234.8     64718.94    1.5882532 
     352         3.52    337898.81    104046.62    104046.62    4377344.1    4481390.7            0    4075790.5    64726.911    1.5880576 
     353         3.53    337773.28    100811.64    100811.64    4375717.9    4476529.5            0    4045756.1    64734.888     1.587862 
     354         3.54    337635.57    97750.483    97750.483    4373933.9    4471684.4            0    3990580.4    64742.869    1.5876662 
     355         3.55    337482.89     94894.52     94894.52    4371956.1    4466850.6            0    3955935.5    64750.854    1.5874704 
     356         3.56    337323.23     92124.48     92124.48    4369887.6    4462012.1            0    3962507.2    64758.844    1.5872746 
     357         3.57    337164.86    89332.432    89332.432      4367836    4457168.5            0    3980921.6    64766.837    1.5870787 
     358         3.58    337010.75    86481.569    86481.569    4365839.7    4452321.2            0    3997251.8    64774.833    1.5868828 
     359         3.59    336858.88    83585.275    83585.275    4363872.2    4447457.5            0    3992109.5    64782.834    1.5866868 
     360          3.6    336701.85    80757.529    80757.529    4361837.9    4442595.5            0    3958260.3    64790.837    1.5864908 
     361         3.61    336534.44    78071.404    78071.404    4359669.2    4437740.6            0    3926075.9    64798.844    1.5862948 
     362         3.62    336358.96    75492.329    75492.329      4357396    4432888.3            0    3909417.7    64806.853    1.5860987 
     363         3.63    336177.98    72980.769    72980.769    4355051.4    4428032.1            0    3888916.8    64814.864    1.5859027 
     364         3.64    335991.21    70553.886    70553.886    4352631.8    4423185.7            0    3865687.4    64822.878    1.5857066 
     365         3.65    335799.69    68187.104    68187.104    4350150.8    4418337.9            0    3852263.3    64830.893    1.5855106 
     366         3.66    335606.51     65843.79     65843.79    4347648.3    4413492.1            0    3854574.6    64838.909    1.5853145 
     367         3.67    335414.81    63474.184    63474.184    4345164.9    4408639.1            0    3869805.6    64846.927    1.5851185 
     368         3.68    335226.82    61055.002    61055.002    4342729.6    4403784.6            0    3894091.1    64854.946    1.5849225 
     369         3.69     335043.6    58563.742    58563.742    4340355.9    4398919.7            0    3923430.8    64862.966    1.5847266 
     370          3.7    334865.22    55997.317    55997.317    4338045.2    4394042.5            0    3948372.4    64870.988    1.5845306 
     371         3.71    334687.58    53419.536    53419.536    4335743.9    4389163.4            0    3926389.6    64879.011    1.5843347 
     372         3.72    334502.23    50936.133    50936.133    4333342.8    4384278.9            0    3876653.2    64887.035    1.5841387 
     373         3.73     334305.7    48616.647    48616.647    4330796.8    4379413.5            0    3836696.9    64895.059    1.5839429 
     374         3.74    334100.84    46415.262    46415.262    4328142.9    4374558.2            0    3814499.8    64903.084     1.583747 
     375         3.75     333891.1    44280.514    44280.514    4325425.8    4369706.3            0    3801624.7    64911.108    1.5835512 
     376         3.76    333678.48    42182.996    42182.996    4322671.4    4364854.4            0      3794405    64919.131    1.5833555 
     377         3.77     333464.6    40104.905    40104.905    4319900.7    4360005.6            0    3792826.1    64927.155    1.5831599 
     378         3.78    333251.26    38017.378    38017.378    4317136.9    4355154.3            0    3797431.8    64935.177    1.5829643 
     379         3.79       333041    35891.985    35891.985      4314413      4350305            0    3811343.3    64943.198    1.5827688 
     380          3.8    332833.99     33705.64     33705.64    4311731.4      4345437            0    3814325.4    64951.218    1.5825733 
     381         3.81    332626.54    31535.094    31535.094      4309044    4340579.1            0    3803679.3    64959.238     1.582378 
     382         3.82    332417.02    29392.487    29392.487    4306329.7    4335722.2            0    3798804.1    64967.255    1.5821827 
     383         3.83    332208.28    27241.833    27241.833    4303625.6    4330867.4            0    3807064.1    64975.272    1.5819875 
     384         3.84    332000.87    25058.608    25058.608    4300938.7    4325997.3            0      3802826    64983.287    1.5817924 
     385         3.85    331790.46    22921.394    22921.394    4298212.8    4321134.2            0    3782599.1      64991.3    1.5815973 
     386         3.86    331574.26     20867.69     20867.69      4295412    4316279.7            0    3762883.6    64999.311    1.5814024 
     387         3.87     331354.2    18865.066    18865.066    4292561.3    4311426.3            0      3756474    65007.319    1.5812076 
     388         3.88    331132.71     16875.47     16875.47    4289691.9    4306567.4            0    3751781.9    65015.325    1.5810129 
     389         3.89    330908.44    14922.564    14922.564    4286786.6    4301709.1            0    3733814.4    65023.329    1.5808183 
     390          3.9    330678.68    13045.929    13045.929    4283810.2    4296856.1            0    3711041.4     65031.33    1.5806238 
     391         3.91    330443.77     11242.05     11242.05      4280767      4292009            0    3701464.7    65039.327    1.5804294 
     392         3.92    330208.88    9435.2582    9435.2582    4277724.1    4287159.4            0    3722474.8    65047.321    1.5802352 
     393         3.93    329979.91    7543.9288    7543.9288    4274757.9    4282301.8            0    3753031.5    65055.312    1.5800411 
     394         3.94    329758.34    5550.6973    5550.6973    4271887.5    4277438.2            0    3773459.2    65063.299    1.5798471 
     395         3.95    329543.05    3471.0301    3471.0301    4269098.6    4272569.6            0    3784672.6    65071.283    1.5796533 
     396         3.96    329328.88    1369.1417    1369.1417    4266324.1    4267693.2            0      3761971    65079.264    1.5794596 
     397         3.97    329108.15   -633.92912   -633.92912    4263464.6    4262830.6            0    3719235.3    65087.241     1.579266 
     398         3.98    328879.77   -2519.0995   -2519.0995      4260506    4257986.9            0    3703366.6    65095.215    1.5790725 
     399         3.99    328651.06   -4407.5405   -4407.5405    4257543.2    4253135.7            0    3745367.9    65103.184    1.5788792 
     400            4    328427.12   -6369.2395   -6369.2395    4254642.2    4248272.9            0    3773249.6    65111.149    1.5786861 
     401         4.01    328203.94   -8354.4198   -8354.4198    4251750.9    4243396.4            0    3753312.9     65119.11    1.5784931 
     402         4.02    327973.64   -10224.302   -10224.302    4248767.5    4238543.2            0    3699833.3    65127.066    1.5783003 
     403         4.03    327734.13   -11967.886   -11967.886    4245664.7    4233696.8            0    3666112.7    65135.019    1.5781076 
     404         4.04    327489.79   -13639.116   -13639.116    4242499.4    4228860.3            0    3654758.4    65142.966    1.5779151 
     405         4.05    327245.27   -15305.357   -15305.357    4239331.8    4224026.4            0    3660871.5    65150.907    1.5777227 
     406         4.06    327004.13    -17019.49    -17019.49    4236207.9    4219188.4            0      3676906    65158.844    1.5775305 
     407         4.07    326766.52   -18788.916   -18788.916    4233129.8    4214340.8            0    3682091.5    65166.775    1.5773385 
     408         4.08    326529.61   -20564.146   -20564.146    4230060.6    4209496.5            0    3676501.3    65174.701    1.5771467 
     409         4.09    326292.21   -22327.003   -22327.003    4226985.2    4204658.2            0    3674174.8    65182.621    1.5769551 
     410          4.1    326055.48   -24102.398   -24102.398    4223918.5    4199816.1            0    3676908.1    65190.535    1.5767636 
     411         4.11    325820.59   -25897.606   -25897.606    4220875.6      4194978            0    3681180.5    65198.444    1.5765724 
     412         4.12    325588.29   -27725.848   -27725.848    4217866.2    4190140.3            0      3686439    65206.347    1.5763813 
     413         4.13    325358.47   -29593.592   -29593.592      4214889    4185295.4            0    3686177.8    65214.245    1.5761904 
     414         4.14       325129   -31469.628   -31469.628    4211916.3    4180446.7            0    3674024.1    65222.136    1.5759997 
     415         4.15    324896.64   -33302.173   -33302.173    4208906.2      4175604            0    3652972.4    65230.021    1.5758092 
     416         4.16    324659.15   -35064.969   -35064.969    4205829.6    4170764.7            0    3629384.8      65237.9    1.5756189 
     417         4.17    324416.07   -36745.656   -36745.656    4202680.5    4165934.9            0    3608545.4    65245.772    1.5754288 
     418         4.18    324168.09   -38359.074   -38359.074    4199468.1      4161109            0    3591860.1    65253.638    1.5752389 
     419         4.19    323916.43   -39916.764   -39916.764      4196208    4156291.2            0    3579827.5    65261.496    1.5750492 
     420          4.2    323662.15   -41444.098   -41444.098    4192913.9    4151469.8            0    3570097.6    65269.348    1.5748597 
     421         4.21    323405.88   -42935.844   -42935.844      4189594    4146658.1            0      3562221    65277.191    1.5746705 
     422         4.22    323148.28   -44408.428   -44408.428    4186256.9    4141848.5            0    3556622.3    65285.028    1.5744815 
     423         4.23    322889.84   -45867.931   -45867.931    4182908.8    4137040.9            0    3551580.3    65292.857    1.5742927 
     424         4.24    322630.81   -47318.362   -47318.362    4179553.2    4132234.9            0    3547517.2    65300.678    1.5741041 
     425         4.25    322371.45   -48760.671   -48760.671    4176193.3    4127432.7            0    3544032.3    65308.491    1.5739158 
     426         4.26    322112.18   -50200.795   -50200.795    4172834.6    4122633.9            0    3543910.8    65316.296    1.5737277 
     427         4.27    321854.45   -51660.003   -51660.003    4169495.8    4117835.8            0    3553707.7    65324.094    1.5735399 
     428         4.28    321603.27   -53189.521   -53189.521    4166241.9    4113052.4            0    3602454.6    65331.883    1.5733523 
     429         4.29    321364.54   -54929.903   -54929.903    4163149.3    4108219.4            0    3659203.4    65339.665    1.5731649 
     430          4.3    321130.77   -56725.916   -56725.916    4160120.9      4103395            0      3619709    65347.439    1.5729777 
     431         4.31     320888.5   -58391.207   -58391.207    4156982.3    4098591.1            0      3564798    65355.206    1.5727908 
     432         4.32    320636.12   -59916.514   -59916.514    4153712.8    4093796.3            0    3527580.8    65362.964    1.5726041 
     433         4.33    320377.03   -61351.341   -61351.341    4150356.5    4089005.1            0    3506579.5    65370.714    1.5724177 
     434         4.34    320114.06   -62727.907   -62727.907    4146949.7    4084221.8            0    3493433.5    65378.456    1.5722315 
     435         4.35    319848.65   -64067.618   -64067.618    4143511.5    4079443.9            0      3483643    65386.188    1.5720455 
     436         4.36     319581.6   -65389.323   -65389.323    4140051.9    4074662.6            0      3475683    65393.912    1.5718599 
     437         4.37    319313.36   -66685.098   -66685.098      4136577      4069892            0      3468352    65401.626    1.5716745 
     438         4.38    319044.27   -67971.693   -67971.693      4133091    4065119.3            0    3461058.1    65409.332    1.5714893 
     439         4.39    318774.98   -69250.353   -69250.353    4129602.5    4060352.2            0    3455826.4    65417.028    1.5713044 
     440          4.4    318506.72   -70541.477   -70541.477    4126127.2    4055585.8            0    3452693.4    65424.714    1.5711198 
     441         4.41    318239.55   -71846.433   -71846.433    4122666.3    4050819.8            0    3444364.9    65432.392    1.5709355 
     442         4.42    317971.93   -73141.326   -73141.326    4119199.3      4046058            0    3430460.4     65440.06    1.5707514 
     443         4.43    317702.58   -74411.314   -74411.314      4115710    4041298.7            0      3417197    65447.718    1.5705676 
     444         4.44    317431.26   -75650.656   -75650.656    4112195.2    4036544.5            0    3407960.7    65455.366    1.5703841 
     445         4.45    317158.07   -76861.374   -76861.374    4108656.1    4031794.8            0    3402083.6    65463.005    1.5702008 
     446         4.46    316883.12   -78047.653   -78047.653    4105094.2    4027046.6            0    3397981.2    65470.634    1.5700179 
     447         4.47    316606.66   -79213.747   -79213.747    4101512.8      4022299            0    3395591.7    65478.252    1.5698352 
     448         4.48    316329.12   -80363.834   -80363.834    4097917.4    4017553.5            0    3395009.8    65485.861    1.5696528 
     449         4.49    316050.97   -81500.823   -81500.823    4094314.1    4012813.3            0    3396184.8    65493.459    1.5694707 
     450          4.5    315772.71   -82632.643   -82632.643    4090709.3    4008076.7            0    3398753.4    65501.048    1.5692889 
     451         4.51    315494.68   -83772.253   -83772.253    4087107.5    4003335.3            0    3401197.6    65508.626    1.5691073 
     452         4.52    315217.06   -84908.922   -84908.922      4083511    3998602.1            0    3403012.8    65516.194    1.5689261 
     453         4.53    314939.85   -86049.219   -86049.219      4079920    3993870.8            0    3403020.6    65523.752    1.5687451 
     454         4.54    314662.84   -87188.313   -87188.313    4076331.4      3989143            0    3400815.3      65531.3    1.5685644 
     455         4.55    314385.82   -88324.174   -88324.174    4072742.7    3984418.5            0    3397057.7    65538.838     1.568384 
     456         4.56    314108.64   -89459.155   -89459.155    4069151.9    3979692.8            0    3391403.6    65546.366    1.5682039 
     457         4.57    313831.08   -90581.841   -90581.841    4065556.3    3974974.4            0    3384506.2    65553.883    1.5680241 
     458         4.58    313553.12   -91698.287   -91698.287    4061955.4    3970257.1            0      3376811     65561.39    1.5678445 
     459         4.59    313274.94   -92805.785   -92805.785    4058351.7    3965545.9            0    3369227.4    65568.887    1.5676653 
     460          4.6    312996.32   -93910.163   -93910.163    4054742.3    3960832.1            0    3359092.9    65576.373    1.5674863 
     461         4.61    312716.08   -94986.679   -94986.679    4051111.9    3956125.2            0    3345229.8    65583.849    1.5673076 
     462         4.62    312432.91   -96018.535   -96018.535    4047443.6      3951425            0    3329582.9    65591.314    1.5671292 
     463         4.63    312146.18   -97003.325   -97003.325    4043729.1    3946725.7            0    3314117.2    65598.768    1.5669512 
     464         4.64    311855.97   -97934.257   -97934.257    4039969.4    3942035.2            0      3300149    65606.211    1.5667734 
     465         4.65    311562.61    -98819.28    -98819.28    4036169.1    3937349.8            0      3287229    65613.644    1.5665959 
     466         4.66    311266.36   -99663.952   -99663.952    4032331.4    3932667.4            0      3274961    65621.065    1.5664187 
     467         4.67    310967.38   -100467.84   -100467.84    4028458.1    3927990.3            0    3262909.8    65628.476    1.5662419 
     468         4.68    310665.81    -101234.4    -101234.4    4024551.4      3923317            0    3251474.3    65635.875    1.5660653 
     469         4.69    310361.79   -101964.43   -101964.43      4020613    3918648.6            0    3240112.3    65643.263     1.565889 
     470          4.7    310055.33   -102655.91   -102655.91    4016642.9      3913987            0    3228650.6    65650.639    1.5657131 
     471         4.71    309746.33   -103310.06   -103310.06      4012640    3909329.9            0    3217020.2    65658.004    1.5655375 
     472         4.72    309434.68    -103925.2    -103925.2    4008602.7    3904677.4            0    3205098.7    65665.358    1.5653622 
     473         4.73    309120.31   -104500.82   -104500.82    4004530.1    3900029.2            0    3193260.5      65672.7    1.5651872 
     474         4.74    308803.18    -105036.4    -105036.4    4000421.8    3895385.4            0    3181314.9     65680.03    1.5650125 
     475         4.75     308483.2   -105529.41   -105529.41    3996276.6    3890747.2            0    3169333.8    65687.349    1.5648381 
     476         4.76     308160.3   -105978.11   -105978.11    3992093.5    3886115.4            0    3157325.1    65694.655    1.5646641 
     477         4.77    307834.39   -106383.64   -106383.64    3987871.5    3881487.8            0    3145276.3     65701.95    1.5644903 
     478         4.78    307505.41   -106745.08   -106745.08    3983609.8    3876864.7            0    3133320.4    65709.234    1.5643169 
     479         4.79    307173.34   -107062.38   -107062.38    3979307.9    3872245.5            0    3121438.5    65716.505    1.5641438 
     480          4.8    306838.16   -107333.62   -107333.62    3974965.8    3867632.2            0    3109730.1    65723.764    1.5639711 
     481         4.81    306499.92   -107558.24   -107558.24      3970584    3863025.8            0    3098283.6    65731.011    1.5637986 
     482         4.82    306158.78   -107740.88   -107740.88    3966164.6    3858423.8            0    3087413.1    65738.246    1.5636265 
     483         4.83    305815.02   -107883.91   -107883.91    3961711.4    3853827.5            0    3077353.3    65745.469    1.5634547 
     484         4.84    305469.07   -107989.98   -107989.98    3957229.7    3849239.7            0    3068453.8     65752.68    1.5632833 
     485         4.85    305121.47   -108074.51   -108074.51    3952726.7    3844652.2            0    3060947.9    65759.878    1.5631122 
     486         4.86    304772.94    -108139.3    -108139.3    3948211.6    3840072.3            0    3055549.5    65767.064    1.5629414 
     487         4.87     304424.3   -108200.91   -108200.91    3943695.2    3835494.2            0    3052519.6    65774.238    1.5627709 
     488         4.88    304076.32   -108267.68   -108267.68    3939187.3    3830919.6            0    3051521.9      65781.4    1.5626008 
     489         4.89    303729.59   -108343.76   -108343.76    3934695.5    3826351.7            0    3052100.4     65788.55    1.5624309 
     490          4.9    303384.37   -108437.21   -108437.21    3930223.3    3821786.1            0    3052950.1    65795.687    1.5622615 
     491         4.91    303040.62   -108548.25   -108548.25    3925770.2    3817221.9            0    3053546.8    65802.812    1.5620923 
     492         4.92    302698.31   -108668.23   -108668.23    3921335.7    3812667.5            0    3054287.4    65809.926    1.5619234 
     493         4.93    302357.49   -108801.63   -108801.63    3916920.4    3808118.8            0    3055126.8    65817.027    1.5617549 
     494         4.94    302018.06   -108949.36   -108949.36    3912523.3      3803574            0    3055292.5    65824.116    1.5615867 
     495         4.95    301679.87   -109107.01   -109107.01    3908142.2    3799035.2            0    3055150.6    65831.194    1.5614188 
     496         4.96     301342.6   -109273.09   -109273.09    3903772.9    3794499.8            0    3053599.1     65838.26    1.5612513 
     497         4.97    301005.72   -109443.73   -109443.73    3899408.9    3789965.1            0    3050149.7    65845.314     1.561084 
     498         4.98    300668.78   -109604.35   -109604.35    3895043.9    3785439.6            0    3044714.8    65852.356    1.5609171 
     499         4.99    300331.78   -109757.17   -109757.17    3890678.3    3780921.1            0    3038933.9    65859.386    1.5607504 
     500            5    299995.93    -109926.1    -109926.1    3886327.4    3776401.3            0    3037224.3    65866.405    1.5605841 
     501         5.01    299663.77   -110133.89   -110133.89    3882024.4    3771890.5            0    3044221.5    65873.412    1.5604181 
     502         5.02    299338.39   -110429.35   -110429.35    3877809.2    3767379.9            0    3059919.3    65880.407    1.5602524 
     503         5.03    299022.25   -110838.23   -110838.23    3873713.8    3762875.6            0    3080984.5    65887.391     1.560087 
     504         5.04    298715.86   -111377.43   -111377.43    3869744.6    3758367.2            0    3097974.6    65894.364     1.559922 
     505         5.05    298416.24   -112000.79   -112000.79    3865863.1    3753862.3            0    3102340.5    65901.326    1.5597572 
     506         5.06    298118.85    -112652.2    -112652.2    3862010.7    3749358.5            0    3099036.9    65908.277    1.5595927 
     507         5.07    297820.93   -113285.33   -113285.33    3858151.1    3744865.8            0    3093777.7    65915.217    1.5594285 
     508         5.08    297521.67   -113899.47   -113899.47    3854274.4    3740374.9            0    3088505.1    65922.146    1.5592646 
     509         5.09    297221.82   -114500.24   -114500.24    3850389.9    3735889.7            0    3086661.9    65929.064    1.5591009 
     510          5.1    296923.03   -115114.58   -115114.58    3846519.3    3731404.7            0    3089443.2    65935.972    1.5589376 
     511         5.11    296627.04   -115761.81   -115761.81    3842684.8      3726923            0    3096378.8    65942.869    1.5587746 
     512         5.12    296334.85   -116452.59   -116452.59    3838899.5    3722446.9            0    3104177.1    65949.755    1.5586118 
     513         5.13    296046.51   -117192.82   -117192.82    3835164.3    3717971.5            0    3109703.9    65956.631    1.5584493 
     514         5.14    295761.76   -117977.02   -117977.02    3831475.4    3713498.4            0    3113231.9    65963.496    1.5582871 
     515         5.15    295480.55   -118799.67   -118799.67    3827832.5    3709032.8            0    3115861.5    65970.351    1.5581252 
     516         5.16    295203.19    -119671.2    -119671.2    3824239.4    3704568.2            0      3118935    65977.196    1.5579635 
     517         5.17    294930.06   -120594.08   -120594.08      3820701      3700107            0    3123087.6    65984.031    1.5578022 
     518         5.18    294661.12   -121570.15   -121570.15    3817217.1    3695646.9            0    3127951.6    65990.856     1.557641 
     519         5.19    294395.69   -122589.18   -122589.18    3813778.5    3691189.3            0    3132748.5    65997.671    1.5574802 
     520          5.2    294132.48   -123637.47   -123637.47    3810368.7    3686731.3            0    3136780.5    66004.476    1.5573196 
     521         5.21    293870.07   -124692.59   -124692.59    3806969.4    3682276.8            0    3139873.5    66011.271    1.5571593 
     522         5.22    293607.46   -125740.31   -125740.31    3803567.4      3677827            0    3142154.6    66018.057    1.5569993 
     523         5.23     293344.2   -126774.99   -126774.99    3800156.9    3673381.9            0      3143760    66024.833    1.5568395 
     524         5.24    293080.04   -127797.39   -127797.39    3796734.9    3668937.5            0    3143950.2      66031.6    1.5566799 
     525         5.25    292814.49   -128799.26   -128799.26    3793294.7    3664495.5            0    3142014.3    66038.358    1.5565206 
     526         5.26    292547.18   -129774.53   -129774.53    3789831.9    3660057.3            0    3139180.2    66045.106    1.5563616 
     527         5.27    292278.86   -130728.05   -130728.05    3786355.9    3655627.8            0    3138167.1    66051.845    1.5562028 
     528         5.28    292011.15    -131686.6    -131686.6    3782887.7    3651201.1            0    3140002.7    66058.575    1.5560443 
     529         5.29    291745.29   -132667.52   -132667.52    3779443.7    3646776.2            0    3143108.8    66065.295     1.555886 
     530          5.3    291481.44   -133674.57   -133674.57    3776025.7    3642351.1            0    3145641.2    66072.007    1.5557279 
     531         5.31    291219.06    -134693.2    -134693.2    3772626.6    3637933.4            0      3147169     66078.71    1.5555701 
     532         5.32    290957.72   -135724.86   -135724.86      3769241    3633516.1            0    3148130.9    66085.403    1.5554125 
     533         5.33    290697.38   -136768.17   -136768.17    3765868.5    3629100.3            0    3149534.8    66092.088    1.5552552 
     534         5.34    290438.47    -137821.1    -137821.1    3762514.3    3624693.2            0    3152300.1    66098.765    1.5550981 
     535         5.35    290181.71   -138897.96   -138897.96    3759188.1    3620290.2            0    3156220.6    66105.433    1.5549413 
     536         5.36     289927.8   -140011.21   -140011.21    3755898.8    3615887.6            0    3160557.4    66112.092    1.5547846 
     537         5.37    289677.02   -141165.09   -141165.09      3752650    3611484.9            0    3163931.6    66118.743    1.5546282 
     538         5.38    289429.13   -142353.73   -142353.73    3749438.7      3607085            0    3165565.1    66125.386    1.5544721 
     539         5.39    289183.52   -143565.56   -143565.56      3746257    3602691.4            0    3165440.1     66132.02    1.5543161 
     540          5.4    288939.31   -144794.41   -144794.41    3743093.4    3598298.9            0    3163631.6    66138.647    1.5541604 
     541         5.41    288695.45   -146022.46   -146022.46    3739934.2    3593911.7            0    3160729.5    66145.265    1.5540049 
     542         5.42    288450.97   -147244.31   -147244.31    3736767.1    3589522.8            0    3157148.3    66151.876    1.5538496 
     543         5.43    288205.16   -148439.45   -148439.45    3733582.7    3585143.3            0    3153427.5    66158.478    1.5536945 
     544         5.44    287957.74    -149609.9    -149609.9    3730377.5    3580767.6            0    3150263.4    66165.073    1.5535397 
     545         5.45     287708.9   -150756.64   -150756.64    3727153.8    3576397.2            0    3147632.6     66171.66     1.553385 
     546         5.46    287459.02   -151889.18   -151889.18    3723916.8    3572027.6            0    3145537.8    66178.239    1.5532306 
     547         5.47    287208.65   -153011.61   -153011.61    3720673.3    3567661.7            0    3144004.3     66184.81    1.5530764 
     548         5.48    286958.11   -154136.47   -154136.47    3717427.7    3563291.2            0    3142484.9    66191.374    1.5529224 
     549         5.49    286707.58      -155254      -155254    3714182.1    3558928.1            0    3141053.8     66197.93    1.5527686 
     550          5.5    286457.04   -156364.42   -156364.42    3710936.5    3554572.1            0    3139363.2    66204.479     1.552615 
     551         5.51     286206.2   -157468.15   -157468.15      3707687    3550218.9            0    3137391.8     66211.02    1.5524616 
     552         5.52    285954.69   -158564.28   -158564.28    3704428.7    3545864.4            0    3135182.9    66217.554    1.5523084 
     553         5.53    285702.17   -159650.04   -159650.04    3701157.5    3541507.4            0    3132713.7     66224.08    1.5521554 
     554         5.54    285448.51   -160704.09   -160704.09    3697871.4    3537167.3            0    3130482.1    66230.599    1.5520027 
     555         5.55    285193.95    -161744.3    -161744.3    3694573.7    3532829.4            0    3128459.8    66237.111    1.5518501 
     556         5.56    284938.74   -162771.15   -162771.15    3691267.6    3528496.4            0      3126402    66243.616    1.5516977 
     557         5.57    284682.98   -163794.06   -163794.06    3687954.2    3524160.2            0    3124504.6    66250.114    1.5515455 
     558         5.58    284426.77   -164809.16   -164809.16    3684635.2      3519826            0    3122617.9    66256.605    1.5513935 
     559         5.59    284170.33   -165810.76   -165810.76      3681313    3515502.3            0      3120915    66263.089    1.5512417 
[...]
    9867        98.67    3184.0531    -391904.4    -391904.4    41248.136   -350656.27            0    70764.422    80974.823    1.2694077 
    9868        98.68    3183.0191   -391904.21   -391904.21     41234.74   -350669.47            0    70605.509    80975.511    1.2693969 
    9869        98.69    3181.9901      -391904      -391904    41221.411   -350682.59            0    70404.715    80976.199    1.2693862 
    9870         98.7    3180.9669    -391903.8    -391903.8    41208.156   -350695.64            0    70250.468    80976.887    1.2693754 
    9871        98.71    3179.9505   -391903.92   -391903.92    41194.989   -350708.93            0    70096.361    80977.575    1.2693646 
    9872        98.72    3178.9396   -391903.96   -391903.96    41181.893   -350722.07            0    69874.295    80978.263    1.2693538 
    9873        98.73    3177.9344   -391904.23   -391904.23    41168.871   -350735.36            0    69685.268    80978.951     1.269343 
    9874        98.74    3176.9355   -391904.86   -391904.86     41155.93   -350748.93            0    69494.908    80979.639    1.2693322 
    9875        98.75     3175.941   -391906.53   -391906.53    41143.047   -350763.48            0    69384.891    80980.327    1.2693214 
    9876        98.76    3174.9516   -391906.91   -391906.91     41130.23   -350776.68            0    69250.464    80981.015    1.2693107 
    9877        98.77    3173.9685   -391907.32   -391907.32    41117.494   -350789.83            0    69078.438    80981.703    1.2692999 
    9878        98.78    3172.9914   -391907.68   -391907.68    41104.835   -350802.84            0     68969.45    80982.391    1.2692891 
    9879        98.79    3172.0206    -391908.2    -391908.2    41092.259   -350815.94            0    68767.556    80983.079    1.2692783 
    9880         98.8    3171.0558   -391908.86   -391908.86    41079.761    -350829.1            0    68577.954    80983.766    1.2692675 
    9881        98.81    3170.0974   -391909.46   -391909.46    41067.346   -350842.12            0    68453.519    80984.454    1.2692568 
    9882        98.82    3169.1461   -391910.36   -391910.36    41055.022   -350855.33            0     68295.06    80985.142     1.269246 
    9883        98.83    3168.2013   -391911.33   -391911.33    41042.783   -350868.55            0    68119.254     80985.83    1.2692352 
    9884        98.84    3167.2621   -391912.13   -391912.13    41030.615   -350881.52            0    67942.702    80986.517    1.2692244 
    9885        98.85     3166.328   -391912.72   -391912.72    41018.514   -350894.21            0    67813.335    80987.205    1.2692136 
    9886        98.86    3165.4002   -391913.75   -391913.75    41006.495   -350907.25            0    67656.482    80987.893    1.2692029 
    9887        98.87      3164.48   -391914.81   -391914.81    40994.574   -350920.24            0     67500.25    80988.581    1.2691921 
    9888        98.88    3163.5663    -391916.1    -391916.1    40982.738   -350933.36            0    67307.647    80989.268    1.2691813 
    9889        98.89    3162.6586   -391917.25   -391917.25    40970.978   -350946.28            0    67175.395    80989.956    1.2691705 
    9890         98.9    3161.7571   -391918.63   -391918.63    40959.301   -350959.33            0    67054.784    80990.643    1.2691598 
    9891        98.91    3160.8628    -391920.1    -391920.1    40947.715   -350972.39            0    66902.398    80991.331     1.269149 
    9892        98.92     3159.976   -391921.62   -391921.62    40936.226    -350985.4            0    66745.343    80992.018    1.2691382 
    9893        98.93    3159.0958   -391923.33   -391923.33    40924.824   -350998.51            0    66535.546    80992.706    1.2691274 
    9894        98.94    3158.2217   -391924.92   -391924.92    40913.501   -351011.42            0    66426.401    80993.393    1.2691167 
    9895        98.95    3157.3547   -391926.67   -391926.67    40902.268    -351024.4            0    66281.381     80994.08    1.2691059 
    9896        98.96    3156.4952   -391928.44   -391928.44    40891.134    -351037.3            0    66112.776    80994.768    1.2690951 
    9897        98.97     3155.643   -391930.38   -391930.38    40880.094   -351050.28            0    66039.855    80995.455    1.2690844 
    9898        98.98    3154.7982   -391932.33   -391932.33     40869.15   -351063.18            0    65929.345    80996.142    1.2690736 
    9899        98.99    3153.9611   -391934.64   -391934.64    40858.306   -351076.33            0     65824.86    80996.829    1.2690628 
    9900           99    3153.1316   -391937.03   -391937.03    40847.561   -351089.47            0    65703.709    80997.516    1.2690521 
    9901        99.01      3152.31   -391939.38   -391939.38    40836.917   -351102.46            0    65588.038    80998.203    1.2690413 
    9902        99.02    3151.4967   -391942.07   -391942.07    40826.381   -351115.69            0    65522.769     80998.89    1.2690305 
    9903        99.03    3150.6903   -391944.56   -391944.56    40815.935   -351128.63            0    65463.956    80999.577    1.2690198 
    9904        99.04    3149.8909   -391947.34   -391947.34    40805.578   -351141.76            0    65377.532    81000.264     1.269009 
    9905        99.05     3149.101   -391949.98   -391949.98    40795.345   -351154.64            0     65270.87    81000.951    1.2689983 
    9906        99.06    3148.3217   -391952.97   -391952.97     40785.25   -351167.72            0    65175.036    81001.637    1.2689875 
    9907        99.07    3147.5541   -391956.05   -391956.05    40775.305   -351180.74            0    65087.205    81002.324    1.2689767 
    9908        99.08    3146.7988   -391959.19   -391959.19    40765.521   -351193.67            0    65001.242    81003.011     1.268966 
    9909        99.09    3146.0559   -391962.45   -391962.45    40755.897   -351206.55            0    64956.529    81003.697    1.2689552 
    9910         99.1    3145.3257   -391966.02   -391966.02    40746.438   -351219.58            0    64827.367    81004.384    1.2689445 
    9911        99.11    3144.6095   -391969.78   -391969.78     40737.16   -351232.62            0    64730.802     81005.07    1.2689337 
    9912        99.12    3143.9078    -391973.7    -391973.7    40728.069   -351245.63            0    64654.413    81005.757     1.268923 
    9913        99.13     3143.221   -391977.36   -391977.36    40719.172   -351258.19            0    64571.084    81006.443    1.2689122 
    9914        99.14    3142.5494   -391981.42   -391981.42    40710.472   -351270.94            0     64490.62    81007.129    1.2689015 
    9915        99.15    3141.8932    -391985.8    -391985.8    40701.972   -351283.83            0    64415.145    81007.815    1.2688907 
    9916        99.16    3141.2522   -391990.42   -391990.42    40693.668   -351296.75            0    64366.481    81008.501      1.26888 
    9917        99.17    3140.6269   -391995.38   -391995.38    40685.567   -351309.81            0    64271.656    81009.187    1.2688692 
    9918        99.18    3140.0178   -392000.51   -392000.51    40677.675   -351322.83            0     64212.72    81009.873    1.2688585 
    9919        99.19    3139.4239   -392005.96   -392005.96    40669.983   -351335.98            0    64095.855    81010.559    1.2688477 
    9920         99.2    3138.8454   -392011.44   -392011.44    40662.488   -351348.95            0    63983.623    81011.245     1.268837 
    9921        99.21    3138.2832   -392017.08   -392017.08    40655.205   -351361.87            0    63883.604    81011.931    1.2688263 
    9922        99.22    3137.7374   -392023.27   -392023.27    40648.135   -351375.14            0    63729.728    81012.617    1.2688155 
    9923        99.23    3137.2078    -392029.4    -392029.4    40641.274   -351388.13            0    63504.855    81013.302    1.2688048 
    9924        99.24    3136.6948   -392035.55   -392035.55    40634.628   -351400.92            0    63379.632    81013.988    1.2687941 
    9925        99.25       3136.2   -392042.06   -392042.06    40628.218   -351413.84            0    63188.887    81014.673    1.2687833 
    9926        99.26     3135.723   -392048.66   -392048.66    40622.039   -351426.63            0    63046.679    81015.358    1.2687726 
    9927        99.27    3135.2621    -392055.5    -392055.5    40616.067   -351439.43            0    62924.481    81016.044    1.2687619 
    9928        99.28    3134.8169   -392062.54   -392062.54      40610.3   -351452.24            0    62809.378    81016.729    1.2687511 
    9929        99.29    3134.3867   -392069.75   -392069.75    40604.728   -351465.02            0    62682.808    81017.414    1.2687404 
    9930         99.3    3133.9711   -392077.33   -392077.33    40599.344   -351477.98            0    62590.258    81018.099    1.2687297 
    9931        99.31    3133.5686   -392084.95   -392084.95     40594.13   -351490.82            0    62519.493    81018.784    1.2687189 
    9932        99.32    3133.1793   -392092.77   -392092.77    40589.086   -351503.68            0    62386.527    81019.469    1.2687082 
    9933        99.33    3132.8042   -392100.68   -392100.68    40584.227   -351516.45            0    62251.452    81020.154    1.2686975 
    9934        99.34     3132.443   -392108.85   -392108.85    40579.548    -351529.3            0    62120.977    81020.839    1.2686868 
    9935        99.35    3132.0965   -392117.15   -392117.15    40575.058    -351542.1            0    61938.839    81021.523     1.268676 
    9936        99.36    3131.7642   -392125.67   -392125.67    40570.754   -351554.92            0    61799.521    81022.208    1.2686653 
    9937        99.37     3131.444   -392134.25   -392134.25    40566.606   -351567.64            0     61740.78    81022.892    1.2686546 
    9938        99.38    3131.1358   -392142.92   -392142.92    40562.613   -351580.31            0    61607.395    81023.576    1.2686439 
    9939        99.39    3130.8401   -392151.85   -392151.85    40558.783   -351593.07            0    61472.969    81024.261    1.2686332 
    9940         99.4    3130.5558   -392160.73   -392160.73    40555.099   -351605.63            0    61375.056    81024.945    1.2686225 
    9941        99.41    3130.2828   -392169.86   -392169.86    40551.563    -351618.3            0    61237.039    81025.629    1.2686118 
    9942        99.42    3130.0214   -392178.98   -392178.98    40548.176   -351630.81            0    61098.467    81026.313    1.2686011 
    9943        99.43    3129.7713   -392188.34   -392188.34    40544.936    -351643.4            0    60954.805    81026.997    1.2685903 
    9944        99.44    3129.5322   -392198.19   -392198.19     40541.84   -351656.35            0    60687.734     81027.68    1.2685796 
    9945        99.45    3129.3054   -392208.02   -392208.02    40538.901   -351669.11            0    60464.402    81028.364    1.2685689 
    9946        99.46    3129.0909   -392218.18   -392218.18    40536.123   -351682.05            0    60263.185    81029.048    1.2685582 
    9947        99.47    3128.8868   -392228.35   -392228.35    40533.478   -351694.88            0    60156.419    81029.731    1.2685475 
    9948        99.48    3128.6928   -392238.69   -392238.69    40530.965   -351707.72            0    60012.221    81030.414    1.2685368 
    9949        99.49     3128.509    -392249.9    -392249.9    40528.584   -351721.32            0    59883.756    81031.098    1.2685261 
    9950         99.5    3128.3352   -392260.44   -392260.44    40526.333   -351734.11            0    59719.553    81031.781    1.2685154 
    9951        99.51    3128.1728   -392270.92   -392270.92    40524.229   -351746.69            0    59526.576    81032.464    1.2685048 
    9952        99.52    3128.0212   -392281.51   -392281.51    40522.265   -351759.25            0     59421.91    81033.147    1.2684941 
    9953        99.53    3127.8794   -392292.34   -392292.34    40520.428   -351771.91            0    59293.561    81033.829    1.2684834 
    9954        99.54    3127.7478   -392300.26   -392300.26    40518.723   -351781.54            0    59207.342    81034.512    1.2684727 
    9955        99.55    3127.6262   -392310.49   -392310.49    40517.148   -351793.34            0    59091.797    81035.195     1.268462 
    9956        99.56    3127.5147   -392321.65   -392321.65    40515.703   -351805.95            0    58965.422    81035.877    1.2684513 
    9957        99.57    3127.4128   -392332.94   -392332.94    40514.383   -351818.56            0     58882.65    81036.559    1.2684406 
    9958        99.58    3127.3206   -392344.81   -392344.81    40513.189   -351831.62            0    58729.477    81037.241      1.26843 
    9959        99.59    3127.2376   -392356.47   -392356.47    40512.114   -351844.35            0    58617.857    81037.923    1.2684193 
    9960         99.6    3127.1632   -392368.61   -392368.61     40511.15   -351857.46            0    58396.235    81038.605    1.2684086 
    9961        99.61    3127.0999   -392381.43   -392381.43     40510.33    -351871.1            0    58081.306    81039.287     1.268398 
    9962        99.62     3127.048   -392394.11   -392394.11    40509.658   -351884.45            0    57868.329    81039.969    1.2683873 
    9963        99.63    3127.0073   -392407.14   -392407.14     40509.13   -351898.01            0    57646.802     81040.65    1.2683766 
    9964        99.64    3126.9774      -392422      -392422    40508.743   -351913.26            0    57522.119    81041.332     1.268366 
    9965        99.65    3126.9565   -392436.31   -392436.31    40508.472   -351927.84            0    57399.146    81042.013    1.2683553 
    9966        99.66    3126.9446   -392448.29   -392448.29    40508.318   -351939.97            0    57340.128    81042.694    1.2683446 
    9967        99.67    3126.9424   -392460.62   -392460.62    40508.289   -351952.33            0    57270.628    81043.375     1.268334 
    9968        99.68    3126.9503   -392473.43   -392473.43    40508.392   -351965.03            0    57249.777    81044.056    1.2683233 
    9969        99.69    3126.9691   -392486.38   -392486.38    40508.636   -351977.75            0     57199.84    81044.736    1.2683127 
    9970         99.7    3126.9998   -392499.56   -392499.56    40509.033   -351990.53            0    57159.775    81045.417     1.268302 
    9971        99.71    3127.0421   -392512.91   -392512.91    40509.581   -352003.33            0    57088.435    81046.097    1.2682914 
    9972        99.72    3127.0964   -392526.38   -392526.38    40510.284   -352016.09            0    57066.415    81046.778    1.2682807 
    9973        99.73    3127.1633   -392539.94   -392539.94    40511.151   -352028.79            0    57027.954    81047.458    1.2682701 
    9974        99.74    3127.2434   -392553.74   -392553.74    40512.189   -352041.55            0     57044.21    81048.138    1.2682594 
    9975        99.75     3127.337   -392567.68   -392567.68    40513.402   -352054.28            0        57045    81048.818    1.2682488 
    9976        99.76    3127.4444   -392582.59   -392582.59    40514.793    -352067.8            0    57041.391    81049.497    1.2682382 
    9977        99.77    3127.5665   -392597.63   -392597.63    40516.374   -352081.25            0    57092.031    81050.177    1.2682275 
    9978        99.78    3127.7042   -392613.17   -392613.17    40518.158   -352095.01            0    57162.298    81050.857    1.2682169 
    9979        99.79    3127.8584   -392629.43   -392629.43    40520.156   -352109.27            0    57248.967    81051.536    1.2682063 
    9980         99.8    3128.0293   -392644.42   -392644.42     40522.37   -352122.05            0    57340.082    81052.215    1.2681956 
    9981        99.81    3128.2175   -392659.76   -392659.76    40524.807   -352134.95            0     57486.98    81052.894     1.268185 
    9982        99.82    3128.4235   -392675.59   -392675.59    40527.477   -352148.12            0    57617.215    81053.573    1.2681744 
    9983        99.83    3128.6471   -392691.56   -392691.56    40530.373   -352161.19            0    57764.003    81054.252    1.2681638 
    9984        99.84    3128.8884    -392707.2    -392707.2    40533.499    -352173.7            0     57971.24     81054.93    1.2681532 
    9985        99.85    3129.1477   -392722.58   -392722.58    40536.858   -352185.72            0    58229.953    81055.609    1.2681425 
    9986        99.86    3129.4254   -392738.63   -392738.63    40540.456   -352198.17            0    58445.699    81056.287    1.2681319 
    9987        99.87    3129.7221   -392755.14   -392755.14    40544.299   -352210.84            0    58657.665    81056.966    1.2681213 
    9988        99.88    3130.0365   -392771.86   -392771.86    40548.372   -352223.49            0    58844.502    81057.644    1.2681107 
    9989        99.89    3130.3667   -392788.84   -392788.84     40552.65   -352236.19            0    58952.446    81058.322    1.2681001 
    9990         99.9      3130.71   -392805.91   -392805.91    40557.097   -352248.82            0      58997.4        81059    1.2680895 
    9991        99.91     3131.065   -392823.19   -392823.19    40561.696    -352261.5            0     59084.09    81059.678    1.2680789 
    9992        99.92    3131.4308    -392840.5    -392840.5    40566.435   -352274.06            0    59128.935    81060.355    1.2680683 
    9993        99.93    3131.8052   -392858.07   -392858.07    40571.285   -352286.78            0    59109.817    81061.033    1.2680577 
    9994        99.94    3132.1866   -392875.71   -392875.71    40576.226   -352299.49            0    59012.772     81061.71    1.2680471 
    9995        99.95    3132.5723   -392893.49   -392893.49    40581.223   -352312.27            0    58863.086    81062.388    1.2680365 
    9996        99.96     3132.959   -392911.08   -392911.08    40586.232   -352324.85            0     58617.93    81063.065    1.2680259 
    9997        99.97     3133.344   -392928.68   -392928.68     40591.22   -352337.46            0    58321.553    81063.742    1.2680153 
    9998        99.98    3133.7254   -392946.41   -392946.41     40596.16   -352350.25            0     57929.64    81064.419    1.2680047 
    9999        99.99    3134.1009   -392964.03   -392964.03    40601.025   -352363.01            0     57471.74    81065.096    1.2679941 
   10000          100    3134.4686   -392981.49   -392981.49    40605.788    -352375.7            0    56914.609    81065.773    1.2679835 
Loop time of 6911.96 on 1 procs for 10000 steps with 4347 atoms

Performance: 0.001 ns/day, 19199.900 hours/ns, 1.447 timesteps/s
99.8% CPU use with 1 MPI tasks x 1 OpenMP threads

MPI task timing breakdown:
Section |  min time  |  avg time  |  max time  |%varavg| %total
---------------------------------------------------------------
Pair    | 5950.1     | 5950.1     | 5950.1     |   0.0 | 86.08
Neigh   | 87.851     | 87.851     | 87.851     |   0.0 |  1.27
Comm    | 0.87275    | 0.87275    | 0.87275    |   0.0 |  0.01
Output  | 5.2555     | 5.2555     | 5.2555     |   0.0 |  0.08
Modify  | 867.62     | 867.62     | 867.62     |   0.0 | 12.55
Other   |            | 0.2972     |            |       |  0.00

Nlocal:    4347 ave 4347 max 4347 min
Histogram: 1 0 0 0 0 0 0 0 0 0
Nghost:    12785 ave 12785 max 12785 min
Histogram: 1 0 0 0 0 0 0 0 0 0
Neighs:    1.10234e+06 ave 1.10234e+06 max 1.10234e+06 min
Histogram: 1 0 0 0 0 0 0 0 0 0

Total # of neighbors = 1102335
Ave neighs/atom = 253.585
Neighbor list builds = 1000
Dangerous builds not checked

Please see the log.cite file for references relevant to this simulation

Total wall time: 1:55:15
